----- GAMESS execution script 'rungms' -----
This job is running on host r734.pvt.bridges.psc.edu
under operating system Linux at Wed Jan 20 15:30:15 EST 2021
SLURM has assigned the following compute nodes to this run:
Available scratch disk space (Kbyte units) at beginning of the job is
Filesystem      1K-blocks    Used  Available Use% Mounted on
/dev/sdb1      3905108984 1370776 3903738208   1% /local
GAMESS temporary binary files will be written to /local/12592602
GAMESS supplementary output files will be written to /pylon5/ca560lp/ccompute/new/236776
Copying input file 236776.inp to your run's scratch directory...
The generated host list is
r734.pvt.bridges.psc.edu:cpus=6

 Distributed Data Interface kickoff program.
 Initiating 6 compute processes on 1 nodes to run the following command:
 /home/ccompute/gamess-2019R1-ddi/gamess.00.x 236776 

          ******************************************************
          *         GAMESS VERSION = 30 JUN 2019 (R1)          *
          *             FROM IOWA STATE UNIVERSITY             *
          * M.W.SCHMIDT, K.K.BALDRIDGE, J.A.BOATZ, S.T.ELBERT, *
          *   M.S.GORDON, J.H.JENSEN, S.KOSEKI, N.MATSUNAGA,   *
          *          K.A.NGUYEN, S.J.SU, T.L.WINDUS,           *
          *       TOGETHER WITH M.DUPUIS, J.A.MONTGOMERY       *
          *         J.COMPUT.CHEM.  14, 1347-1363(1993)        *
          **************** 64 BIT LINUX VERSION ****************

  SINCE 1993, STUDENTS AND POSTDOCS WORKING AT IOWA STATE UNIVERSITY
  AND ALSO IN THEIR VARIOUS JOBS AFTER LEAVING ISU HAVE MADE IMPORTANT
  CONTRIBUTIONS TO THE CODE:
     IVANA ADAMOVIC, CHRISTINE AIKENS, YURI ALEXEEV, POOJA ARORA,
     ANDREY ASADCHEV, ROB BELL, PRADIPTA BANDYOPADHYAY, JONATHAN BENTZ,
     COLLEEN BERTONI, BRETT BODE, KURT BRORSEN, CALEB CARLIN, GALINA CHABAN,
     WEI CHEN, CHEOL HO CHOI, PAUL DAY, ALBERT DEFUSCO, NUWAN DESILVA,
     TIM DUDLEY, DMITRI FEDOROV, ALEX FINDLATER, GRAHAM FLETCHER, 
     MARK FREITAG, KURT GLAESEMANN, ANASTASIA GUNINA,
     DAN KEMP, GRANT MERRILL, NORIYUKI MINEZAWA, JONATHAN MULLIN,
     TAKESHI NAGATA, SEAN NEDD, HEATHER NETZLOFF, BOSILJKA NJEGIC, RYAN OLSON,
     MIKE PAK, BUU PHAM,
     SPENCER PRUITT, LUKE ROSKOP, JIM SHOEMAKER, LYUDMILA SLIPCHENKO,
     TONY SMITH, SAROM SOK LEANG, JIE SONG, TETSUYA TAKETSUGU, SIMON WEBB,
     PENG XU, SOOHAENG YOO, FEDERICO ZAHARIEV

  ADDITIONAL CODE HAS BEEN PROVIDED BY COLLABORATORS IN OTHER GROUPS:
     IOWA STATE UNIVERSITY:
          JOE IVANIC, AARON WEST, LAIMUTIS BYTAUTAS, KLAUS RUEDENBERG
     UNIVERSITY OF TOKYO: KIMIHIKO HIRAO, TAKAHITO NAKAJIMA,
          TAKAO TSUNEDA, MUNEAKI KAMIYA, SUSUMU YANAGISAWA,
          KIYOSHI YAGI, MAHITO CHIBA, SEIKEN TOKURA, NAOAKI KAWAKAMI
     UNIVERSITY OF AARHUS: FRANK JENSEN
     UNIVERSITY OF IOWA: VISVALDAS KAIRYS, HUI LI
     NATIONAL INST. OF STANDARDS AND TECHNOLOGY: WALT STEVENS, DAVID GARMER
     UNIVERSITY OF PISA: BENEDETTA MENNUCCI, JACOPO TOMASI
     UNIVERSITY OF MEMPHIS: HENRY KURTZ, PRAKASHAN KORAMBATH
     UNIVERSITY OF ALBERTA: TOBY ZENG, MARIUSZ KLOBUKOWSKI
     UNIVERSITY OF NEW ENGLAND: MARK SPACKMAN
     MIE UNIVERSITY: HIROAKI UMEDA
     NAT. INST. OF ADVANCED INDUSTRIAL SCIENCE AND TECHNOLOGY: KAZUO KITAURA
     MICHIGAN STATE UNIVERSITY:
          KAROL KOWALSKI, MARTA WLOCH, JEFFREY GOUR, JESSE LUTZ,
          WEI LI, JUN SHEN, J. EMILIANO DEUSTUA, PIOTR PIECUCH
     UNIVERSITY OF MINNESOTA:
          YINAN SHU
     UNIVERSITY OF SILESIA: MONIKA MUSIAL, STANISLAW KUCHARSKI
     FACULTES UNIVERSITAIRES NOTRE-DAME DE LA PAIX:
          OLIVIER QUINET, BENOIT CHAMPAGNE
     UNIVERSITY OF CALIFORNIA - SANTA BARBARA: BERNARD KIRTMAN
     INSTITUTE FOR MOLECULAR SCIENCE:
          KAZUYA ISHIMURA, MICHIO KATOUDA, AND SHIGERU NAGASE
     UNIVERSITY OF NOTRE DAME: ANNA POMOGAEVA, DAN CHIPMAN
     KYUSHU UNIVERSITY:
          HARUYUKI NAKANO,
          FENG LONG GU, JACEK KORCHOWIEC, MARCIN MAKOWSKI, AND YURIKO AOKI,
          HIROTOSHI MORI AND EISAKU MIYOSHI
     PENNSYLVANIA STATE UNIVERSITY:
          TZVETELIN IORDANOV, CHET SWALINA, JONATHAN SKONE,
          SHARON HAMMES-SCHIFFER
     WASEDA UNIVERSITY:
          MASATO KOBAYASHI, TOMOKO AKAMA, TSUGUKI TOUMA,
          TAKESHI YOSHIKAWA, YASUHIRO IKABATA, JUNJI SEINO,
          YUYA NAKAJIMA, HIROMI NAKAI
     NANJING UNIVERSITY: SHUHUA LI
     UNIVERSITY OF NEBRASKA:
          PEIFENG SU, DEJUN SI, NANDUN THELLAMUREGE, YALI WANG, HUI LI
     UNIVERSITY OF ZURICH: ROBERTO PEVERATI, KIM BALDRIDGE
     N. COPERNICUS UNIVERSITY AND JACKSON STATE UNIVERSITY:
          MARIA BARYSZ
     UNIVERSITY OF COPENHAGEN: Jimmy Kromann, CASPER STEINMANN
     TOKYO INSTITUTE OF TECHNOLOGY: HIROYA NAKATA
     NAGOYA UNIVERSITY: YOSHIO NISHIMOTO, STEPHAN IRLE
     MOSCOW STATE UNIVERSITY: VLADIMIR MIRONOV
     A.N.NESMEYANOV INSTITUTE OF ORGANOELEMENT COMPOUNDS OF RUSSIAN ACADEMY OF SCIENCES:
          IGOR S. GERASIMOV


 PARALLEL VERSION RUNNING ON        6 PROCESSORS IN        1 NODES.

 EXECUTION OF GAMESS BEGUN Wed Jan 20 15:30:15 2021

            ECHO OF THE FIRST FEW INPUT CARDS -
 INPUT CARD>!   File created by MacMolPlt 7.5                                               
 INPUT CARD> $CONTRL SCFTYP=UHF RUNTYP=SURFACE EXETYP=RUN MAXIT=200 ICHARG=-1 MULT=1        
 INPUT CARD>    ISPHER=1 $END                                                               
 INPUT CARD> $SURF IVEC1(1)=2,1 IGRP1=1 DISP1=0.05 ORIG1=-0.3 NDISP1=30 $END                
 INPUT CARD> $SURF IVEC2(1)=2,3 IGRP2=3 DISP2=0.05 ORIG2=-0.3 NDISP2=30 $END                
 INPUT CARD> $SYSTEM TIMLIM=2879 MEMORY=250000000 $END                                      
 INPUT CARD> $BASIS GBASIS=ACCT $END                                                        
 INPUT CARD> $GUESS GUESS=HUCKEL $END                                                       
 INPUT CARD> $SCF DIRSCF=.TRUE. $END                                                        
 INPUT CARD> $DATA                                                                          
 INPUT CARD>FHF- linear surface fine                                                        
 INPUT CARD>C1                                                                              
 INPUT CARD>F     9.0    -0.95471     0.00000    -0.00000                                   
 INPUT CARD>H     1.0     0.00000     0.00000     0.00000                                   
 INPUT CARD>F     9.0     0.95471     0.00000     0.00000                                   
 INPUT CARD> $END                                                                           
  250000000 WORDS OF MEMORY AVAILABLE

     BASIS OPTIONS
     -------------
     GBASIS=ACCT         IGAUSS=       0      POLAR=NONE    
     NDFUNC=       0     NFFUNC=       0     DIFFSP=       F
     NPFUNC=       0      DIFFS=       F     BASNAM=        


     RUN TITLE
     ---------
 FHF- linear surface fine                                                        

 THE POINT GROUP OF THE MOLECULE IS C1      
 THE ORDER OF THE PRINCIPAL AXIS IS     0

 ATOM      ATOMIC                      COORDINATES (BOHR)
           CHARGE         X                   Y                   Z
 F           9.0    -1.8041402977        0.0000000000       -0.0000000000
 H           1.0     0.0000000000        0.0000000000        0.0000000000
 F           9.0     1.8041402977        0.0000000000        0.0000000000

          INTERNUCLEAR DISTANCES (ANGS.)
          ------------------------------

                1 F          2 H          3 F     

   1 F       0.0000000    0.9547100 *  1.9094200 *
   2 H       0.9547100 *  0.0000000    0.9547100 *
   3 F       1.9094200 *  0.9547100 *  0.0000000  

  * ... LESS THAN  3.000


     ATOMIC BASIS SET
     ----------------
 THE CONTRACTED PRIMITIVE FUNCTIONS HAVE BEEN UNNORMALIZED
 THE CONTRACTED BASIS FUNCTIONS ARE NOW NORMALIZED TO UNITY

  SHELL TYPE  PRIMITIVE        EXPONENT          CONTRACTION COEFFICIENT(S)

 F         

      1   S       1         19500.0000000    0.000519371600
      1   S       2          2923.0000000    0.004018727387
      1   S       3           664.5000000    0.020692911859
      1   S       4           187.5000000    0.080937968612
      1   S       5            60.6200000    0.236062075041
      1   S       6            21.4200000    0.443434759512
      1   S       7             7.9500000    0.358503673552
      1   S       8             0.8815000   -0.008084577247

      2   S       9         19500.0000000   -0.000199591153
      2   S      10          2923.0000000   -0.001555787449
      2   S      11           664.5000000   -0.008046764688
      2   S      12           187.5000000   -0.032558946542
      2   S      13            60.6200000   -0.101765899400
      2   S      14            21.4200000   -0.238844079709
      2   S      15             7.9500000   -0.301573702586
      2   S      16             0.8815000    1.032147264620

      3   S      17             2.2570000    1.000000000000

      4   S      18             0.3041000    1.000000000000

      5   P      19            43.8800000    0.041904620686
      5   P      20             9.9260000    0.262697841725
      5   P      21             2.9300000    0.797759373475

      6   P      22             0.9132000    1.000000000000

      7   P      23             0.2672000    1.000000000000

      8   D      24             3.1070000    1.000000000000

      9   D      25             0.8550000    1.000000000000

     10   F      26             1.9170000    1.000000000000

     11   S      27             0.0915800    1.000000000000

     12   P      28             0.0736100    1.000000000000

     13   D      29             0.2920000    1.000000000000

     14   F      30             0.7240000    1.000000000000

 H         

     15   S      31            33.8700000    0.025494863235
     15   S      32             5.0950000    0.190362765893
     15   S      33             1.1590000    0.852162022245

     16   S      34             0.3258000    1.000000000000

     17   S      35             0.1027000    1.000000000000

     18   P      36             1.4070000    1.000000000000

     19   P      37             0.3880000    1.000000000000

     20   D      38             1.0570000    1.000000000000

     21   S      39             0.0252600    1.000000000000

     22   P      40             0.1020000    1.000000000000

     23   D      41             0.2470000    1.000000000000

 F         

     24   S      42         19500.0000000    0.000519371600
     24   S      43          2923.0000000    0.004018727387
     24   S      44           664.5000000    0.020692911859
     24   S      45           187.5000000    0.080937968612
     24   S      46            60.6200000    0.236062075041
     24   S      47            21.4200000    0.443434759512
     24   S      48             7.9500000    0.358503673552
     24   S      49             0.8815000   -0.008084577247

     25   S      50         19500.0000000   -0.000199591153
     25   S      51          2923.0000000   -0.001555787449
     25   S      52           664.5000000   -0.008046764688
     25   S      53           187.5000000   -0.032558946542
     25   S      54            60.6200000   -0.101765899400
     25   S      55            21.4200000   -0.238844079709
     25   S      56             7.9500000   -0.301573702586
     25   S      57             0.8815000    1.032147264620

     26   S      58             2.2570000    1.000000000000

     27   S      59             0.3041000    1.000000000000

     28   P      60            43.8800000    0.041904620686
     28   P      61             9.9260000    0.262697841725
     28   P      62             2.9300000    0.797759373475

     29   P      63             0.9132000    1.000000000000

     30   P      64             0.2672000    1.000000000000

     31   D      65             3.1070000    1.000000000000

     32   D      66             0.8550000    1.000000000000

     33   F      67             1.9170000    1.000000000000

     34   S      68             0.0915800    1.000000000000

     35   P      69             0.0736100    1.000000000000

     36   D      70             0.2920000    1.000000000000

     37   F      71             0.7240000    1.000000000000

 TOTAL NUMBER OF BASIS SET SHELLS             =   37
 NUMBER OF CARTESIAN GAUSSIAN BASIS FUNCTIONS =  135
 NOTE: THIS RUN WILL RESTRICT THE MO VARIATION SPACE TO SPHERICAL HARMONICS.
 THE NUMBER OF ORBITALS KEPT IN THE VARIATIONAL SPACE WILL BE PRINTED LATER.
 NUMBER OF ELECTRONS                          =   20
 CHARGE OF MOLECULE                           =   -1
 SPIN MULTIPLICITY                            =    1
 NUMBER OF OCCUPIED ORBITALS (ALPHA)          =   10
 NUMBER OF OCCUPIED ORBITALS (BETA )          =   10
 TOTAL NUMBER OF ATOMS                        =    3
 THE NUCLEAR REPULSION ENERGY IS       32.4254161793

 THIS MOLECULE IS RECOGNIZED AS BEING LINEAR,
 ORBITAL LZ DEGENERACY TOLERANCE ETOLLZ= 1.00E-06

     $CONTRL OPTIONS
     ---------------
 SCFTYP=UHF          RUNTYP=SURFACE      EXETYP=RUN     
 MPLEVL=       0     CITYP =NONE         CCTYP =NONE         VBTYP =NONE    
 DFTTYP=NONE         TDDFT =NONE    
 MULT  =       1     ICHARG=      -1     NZVAR =       0     COORD =UNIQUE  
 PP    =NONE         RELWFN=NONE         LOCAL =NONE         NUMGRD=       F
 ISPHER=       1     NOSYM =       0     MAXIT =     200     UNITS =ANGS    
 PLTORB=       F     MOLPLT=       F     AIMPAC=       F     FRIEND=        
 NPRINT=       7     IREST =       0     GEOM  =INPUT   
 NORMF =       0     NORMP =       0     ITOL  =      20     ICUT  =       9
 INTTYP=BEST         GRDTYP=BEST         QMTTOL= 1.0E-06

     $SYSTEM OPTIONS
     ---------------
  REPLICATED MEMORY=   250000000 WORDS (ON EVERY NODE).
 DISTRIBUTED MEMDDI=           0 MILLION WORDS IN AGGREGATE,
 MEMDDI DISTRIBUTED OVER   6 PROCESSORS IS           0 WORDS/PROCESSOR.
 TOTAL MEMORY REQUESTED ON EACH PROCESSOR=   250000000 WORDS.
 TIMLIM=        2879.00 MINUTES, OR       2.0 DAYS.
 PARALL= T  BALTYP=  DLB     KDIAG=    0  COREFL= F
 MXSEQ2=     300 MXSEQ3=     150  mem10=         0

          ----------------
          PROPERTIES INPUT
          ----------------

     MOMENTS            FIELD           POTENTIAL          DENSITY
 IEMOM =       1   IEFLD =       0   IEPOT =       0   IEDEN =       0
 WHERE =COMASS     WHERE =NUCLEI     WHERE =NUCLEI     WHERE =NUCLEI  
 OUTPUT=BOTH       OUTPUT=BOTH       OUTPUT=BOTH       OUTPUT=BOTH    
 IEMINT=       0   IEFINT=       0                     IEDINT=       0
                                                       MORB  =       0
          EXTRAPOLATION IN EFFECT
          SOSCF IN EFFECT
          DIIS or SOSCF will be reset if energy rises
 ORBITAL PRINTING OPTION: NPREO=     1   135     2     1

     -------------------------------
     INTEGRAL TRANSFORMATION OPTIONS
     -------------------------------
     NWORD  =            0
     CUTOFF = 1.0E-09     MPTRAN =       0
     DIRTRF =       T     AOINTS =DUP     

          ----------------------
          INTEGRAL INPUT OPTIONS
          ----------------------
 NOPK  =       1 NORDER=       0 SCHWRZ=       T

     ------------------------------------------
     THE POINT GROUP IS C1 , NAXIS= 0, ORDER= 1
     ------------------------------------------

 -- VARIATIONAL SPACE WILL BE RESTRICTED TO PURE SPHERICAL HARMONICS ONLY --
 AFTER EXCLUDING CONTAMINANT COMBINATIONS FROM THE CARTESIAN GAUSSIAN BASIS
 SET, THE NUMBER OF SPHERICAL HARMONICS KEPT IN THE VARIATION SPACE IS  115

     DIMENSIONS OF THE SYMMETRY SUBSPACES ARE
 A   =  115

 ..... DONE SETTING UP THE RUN .....
 CPU     0: STEP CPU TIME=     0.05 TOTAL CPU TIME=          0.1 (      0.0 MIN)
 TOTAL WALL CLOCK TIME=          0.1 SECONDS, CPU UTILIZATION IS    71.43%

     ---------------------------
     POTENTIAL SURFACE MAP INPUT
     ---------------------------
 JOB 1 IS RUNTYP=ENERGY   SCFTYP=UHF       CITYP=NONE    
          MPLEVL=       0  CCTYP=NONE     DFTTYP=NONE    
 COORD 1 LYING ALONG ATOM PAIR    2    1
 HAS ORIGIN=-0.300, DISPLACEMENT= 0.050  AND 30 STEPS.
 GROUP 1 CONTAINS    1 ATOMS:
     1
 COORD 2 LYING ALONG ATOM PAIR    2    3
 HAS ORIGIN=-0.300, DISPLACEMENT= 0.050  AND 30 STEPS.
 GROUP 2 CONTAINS    1 ATOMS:
     3

 ATOM      ATOMIC                      COORDINATES (BOHR)
           CHARGE         X                   Y                   Z
 F           9.0    -1.2372225014        0.0000000000        0.0000000000
 H           1.0     0.0000000000        0.0000000000        0.0000000000
 F           9.0     1.2372225014        0.0000000000        0.0000000000

          INTERNUCLEAR DISTANCES (ANGS.)
          ------------------------------

                1 F          2 H          3 F     

   1 F       0.0000000    0.6547100 *  1.3094200 *
   2 H       0.6547100 *  0.0000000    0.6547100 *
   3 F       1.3094200 *  0.6547100 *  0.0000000  

  * ... LESS THAN  3.000


          ********************
          1 ELECTRON INTEGRALS
          ********************
 ...... END OF ONE-ELECTRON INTEGRALS ......
 CPU     0: STEP CPU TIME=     0.01 TOTAL CPU TIME=          0.1 (      0.0 MIN)
 TOTAL WALL CLOCK TIME=          0.1 SECONDS, CPU UTILIZATION IS    66.67%

          -------------
          GUESS OPTIONS
          -------------
          GUESS =HUCKEL            NORB  =       0          NORDER=       0
          MIX   =       F          PRTMO =       F          PUNMO =       F
          TOLZ  = 1.0E-08          TOLE  = 1.0E-05
          SYMDEN=       F          PURIFY=       F

 INITIAL GUESS ORBITALS GENERATED BY HUCKEL   ROUTINE.
 HUCKEL GUESS REQUIRES    133344 WORDS.

 STATISTICS FOR GENERATION OF SYMMETRY ORBITAL -Q- MATRIX
 NUMBER OF CARTESIAN ATOMIC ORBITALS=        135
 NUMBER OF SPHERICAL CONTAMINANTS DROPPED=    20
 NUMBER OF LINEARLY DEPENDENT MOS DROPPED=     0
 TOTAL NUMBER OF MOS IN VARIATION SPACE=     115

 SYMMETRIES FOR INITIAL GUESS ORBITALS FOLLOW.  ALPHA SET(S).
    10 ORBITALS ARE OCCUPIED (    2 CORE ORBITALS).
     3=A        4=A        5=A        6=A        7=A        8=A        9=A   
    10=A       11=A       12=A       13=A       14=A       15=A       16=A   
    17=A       18=A       19=A       20=A   

 SYMMETRIES FOR INITIAL GUESS ORBITALS FOLLOW.   BETA SET(S).
    10 ORBITALS ARE OCCUPIED (    2 CORE ORBITALS).
     3=A        4=A        5=A        6=A        7=A        8=A        9=A   
    10=A       11=A       12=A       13=A       14=A       15=A       16=A   
    17=A       18=A       19=A       20=A   
 ...... END OF INITIAL ORBITAL SELECTION ......
 CPU     0: STEP CPU TIME=     0.04 TOTAL CPU TIME=          0.1 (      0.0 MIN)
 TOTAL WALL CLOCK TIME=          0.1 SECONDS, CPU UTILIZATION IS    83.33%

                    ----------------------
                    AO INTEGRAL TECHNOLOGY
                    ----------------------
     S,P,L SHELL ROTATED AXIS INTEGRALS, REPROGRAMMED BY
        KAZUYA ISHIMURA (IMS) AND JOSE SIERRA (SYNSTAR).
     S,P,D,L SHELL ROTATED AXIS INTEGRALS PROGRAMMED BY
        KAZUYA ISHIMURA (INSTITUTE FOR MOLECULAR SCIENCE).
     S,P,D,F,G SHELL TO TOTAL QUARTET ANGULAR MOMENTUM SUM 5,
        ERIC PROGRAM BY GRAHAM FLETCHER (ELORET AND NASA ADVANCED
        SUPERCOMPUTING DIVISION, AMES RESEARCH CENTER).
     S,P,D,F,G,L SHELL GENERAL RYS QUADRATURE PROGRAMMED BY
        MICHEL DUPUIS (PACIFIC NORTHWEST NATIONAL LABORATORY).

          --------------------
          2 ELECTRON INTEGRALS
          --------------------

 DIRECT SCF METHOD SKIPS INTEGRAL STORAGE ON DISK.
 DIRECT TRANSFORMATION SKIPS AO INTEGRAL STORAGE ON DISK.
  ...... END OF TWO-ELECTRON INTEGRALS .....
 CPU     0: STEP CPU TIME=     0.01 TOTAL CPU TIME=          0.1 (      0.0 MIN)
 TOTAL WALL CLOCK TIME=          0.2 SECONDS, CPU UTILIZATION IS    57.89%

          ---------------------------
                  UHF SCF CALCULATION
          ---------------------------

     NUCLEAR ENERGY =        47.2833301470
     MAXIT =200     NPUNCH=  2     MULT=  1
     EXTRAP=T  DAMP=F  SHIFT=F  RSTRCT=F  DIIS=F  SOSCF=T
     DENSITY MATRIX CONV=  2.00E-05
     SOSCF WILL OPTIMIZE    1050 ALPHA AND    1050 BETA ROTATION ANGLES.
     SOGTOL= 2.500E-01
     MEMORY REQUIRED FOR UHF/ROHF ITERS=    254616 WORDS.

 DIRECT SCF CALCULATION, SCHWRZ=T   FDIFF=T
 SCHWARZ INEQUALITY OVERHEAD:      9180 INTEGRALS, T=        0.00

                                                                                NONZERO     BLOCKS
 ITER EX      TOTAL ENERGY        E CHANGE  DENSITY CHANGE    ORB. GRAD       INTEGRALS    SKIPPED
   1  0     -197.8556180665  -197.8556180665  10.540640362   0.000000000       10630644          0
          ---------------START SECOND ORDER SCF---------------
   2  1     -198.5161307483    -0.6605126818   3.123164905   0.071873198       10630644          0
   3  2     -198.5445183805    -0.0283876321   4.114502253   0.022937954       10630639          5
   4  3     -198.5528182670    -0.0082998865   1.069381295   0.007698614       10630575         26
   5  4     -198.5532714564    -0.0004531894   0.483594048   0.001688771       10630564         31
   6  5     -198.5533167582    -0.0000453018   0.236546031   0.000519738       10630204         74
   7  6     -198.5533232355    -0.0000064772   0.025042512   0.000059342       10629232        165
   8  7     -198.5533233189    -0.0000000835   0.001685016   0.000015953       10619422        833
   9  8     -198.5533233225    -0.0000000036   0.000368477   0.000002281       10604438       1469
  10  9     -198.5533233227    -0.0000000002   0.000078579   0.000000267       10526171       4278
  11 10     -198.5533233221     0.0000000007   0.000004313   0.000000026       10246166       9640
  12 11     -198.5533233212     0.0000000009   0.000000177   0.000000012        9419780      21269

          -----------------
          DENSITY CONVERGED
          -----------------
     TIME TO FORM FOCK OPERATORS=       3.3 SECONDS (       0.3 SEC/ITER)
     FOCK TIME ON FIRST ITERATION=       0.3, LAST ITERATION=       0.2
     TIME TO SOLVE SCF EQUATIONS=       0.1 SECONDS (       0.0 SEC/ITER)

 FINAL UHF ENERGY IS     -198.5533233212 AFTER  12 ITERATIONS

          --------------------
          SPIN SZ   =    0.000
          S-SQUARED =   -0.000
          --------------------

 LZ VALUE ANALYSIS FOR THE MOS
 ----------------------------------------
 MO     1 (    1) HAS LZ(WEIGHT)= 0.00(100.0%) 
 MO     2 (    2) HAS LZ(WEIGHT)= 0.00(100.0%) 
 MO     3 (    3) HAS LZ(WEIGHT)= 0.00(100.0%) 
 MO     4 (    4) HAS LZ(WEIGHT)= 0.00(100.0%) 
 MO     5 (    5) HAS LZ(WEIGHT)= 0.00(100.0%) 
 MO     6 (    6) HAS LZ(WEIGHT)= 0.00(100.0%) 
 MO     7 (    6) HAS LZ(WEIGHT)= 0.00(100.0%) 
 MO     8 (    7) HAS LZ(WEIGHT)=-0.00( 50.0%)  0.00( 50.0%) 
 MO     9 (    7) HAS LZ(WEIGHT)=-0.00( 50.0%)  0.00( 50.0%) 
 MO    10 (    8) HAS LZ(WEIGHT)= 0.00(100.0%) 
 MO    11 (    9) HAS LZ(WEIGHT)= 0.00(100.0%) 
 MO    12 (   10) HAS LZ(WEIGHT)= 0.00(100.0%) 
 MO    13 (   11) HAS LZ(WEIGHT)= 0.00(100.0%) 
 MO    14 (   11) HAS LZ(WEIGHT)= 0.00(100.0%) 
 MO    15 (   12) HAS LZ(WEIGHT)= 0.00(100.0%) 
 MO    16 (   13) HAS LZ(WEIGHT)=-0.00( 50.0%)  0.00( 50.0%) 
 MO    17 (   13) HAS LZ(WEIGHT)=-0.00( 50.0%)  0.00( 50.0%) 
 MO    18 (   14) HAS LZ(WEIGHT)= 0.00(100.0%) 
 MO    19 (   15) HAS LZ(WEIGHT)= 0.00(100.0%) 
 MO    20 (   16) HAS LZ(WEIGHT)= 0.00(100.0%) 
 MO    21 (   16) HAS LZ(WEIGHT)= 0.00(100.0%) 
 MO    22 (   17) HAS LZ(WEIGHT)= 0.00(100.0%) 
 MO    23 (   18) HAS LZ(WEIGHT)= 0.00(100.0%) 
 MO    24 (   19) HAS LZ(WEIGHT)= 0.00(100.0%) 
 MO    25 (   19) HAS LZ(WEIGHT)= 0.00(100.0%) 
 MO    26 (   20) HAS LZ(WEIGHT)= 0.00(100.0%) 
 MO    27 (   21) HAS LZ(WEIGHT)=-0.00( 50.0%)  0.00( 50.0%) 
 MO    28 (   21) HAS LZ(WEIGHT)=-0.00( 50.0%)  0.00( 50.0%) 
 MO    29 (   22) HAS LZ(WEIGHT)= 0.00(100.0%) 
 MO    30 (   22) HAS LZ(WEIGHT)= 0.00(100.0%) 
 MO    31 (   23) HAS LZ(WEIGHT)= 0.00(100.0%) 
 MO    32 (   24) HAS LZ(WEIGHT)= 0.00(100.0%) 
 MO    33 (   24) HAS LZ(WEIGHT)= 0.00(100.0%) 
 MO    34 (   25) HAS LZ(WEIGHT)= 0.00(100.0%) 
 MO    35 (   26) HAS LZ(WEIGHT)= 0.00(100.0%) 
 MO    36 (   26) HAS LZ(WEIGHT)= 0.00(100.0%) 
 MO    37 (   27) HAS LZ(WEIGHT)=-0.00( 50.0%)  0.00( 50.0%) 
 MO    38 (   27) HAS LZ(WEIGHT)=-0.00( 50.0%)  0.00( 50.0%) 
 MO    39 (   28) HAS LZ(WEIGHT)= 0.00(100.0%) 
 MO    40 (   29) HAS LZ(WEIGHT)= 0.00(100.0%) 
 MO    41 (   29) HAS LZ(WEIGHT)= 0.00(100.0%) 
 MO    42 (   30) HAS LZ(WEIGHT)= 0.00(100.0%) 
 MO    43 (   31) HAS LZ(WEIGHT)= 0.00(100.0%) 
 MO    44 (   31) HAS LZ(WEIGHT)= 0.00(100.0%) 
 MO    45 (   32) HAS LZ(WEIGHT)=-0.00( 50.0%)  0.00( 50.0%) 
 MO    46 (   32) HAS LZ(WEIGHT)=-0.00( 50.0%)  0.00( 50.0%) 
 MO    47 (   33) HAS LZ(WEIGHT)= 0.00(100.0%) 
 MO    48 (   34) HAS LZ(WEIGHT)= 0.00(100.0%) 
 MO    49 (   35) HAS LZ(WEIGHT)= 0.00(100.0%) 
 MO    50 (   36) HAS LZ(WEIGHT)= 0.00(100.0%) 
 MO    51 (   36) HAS LZ(WEIGHT)= 0.00(100.0%) 
 MO    52 (   37) HAS LZ(WEIGHT)= 0.00(100.0%) 
 MO    53 (   37) HAS LZ(WEIGHT)= 0.00(100.0%) 
 MO    54 (   38) HAS LZ(WEIGHT)= 0.00(100.0%) 
 MO    55 (   39) HAS LZ(WEIGHT)= 0.00(100.0%) 
 MO    56 (   39) HAS LZ(WEIGHT)= 0.00(100.0%) 
 MO    57 (   40) HAS LZ(WEIGHT)=-0.00( 50.0%)  0.00( 50.0%) 
 MO    58 (   40) HAS LZ(WEIGHT)=-0.00( 50.0%)  0.00( 50.0%) 
 MO    59 (   41) HAS LZ(WEIGHT)= 0.00(100.0%) 
 MO    60 (   41) HAS LZ(WEIGHT)= 0.00(100.0%) 
 MO    61 (   42) HAS LZ(WEIGHT)= 0.00(100.0%) 
 MO    62 (   42) HAS LZ(WEIGHT)= 0.00(100.0%) 
 MO    63 (   43) HAS LZ(WEIGHT)= 0.00(100.0%) 
 MO    64 (   44) HAS LZ(WEIGHT)= 0.00(100.0%) 
 MO    65 (   44) HAS LZ(WEIGHT)= 0.00(100.0%) 
 MO    66 (   45) HAS LZ(WEIGHT)= 0.00(100.0%) 
 MO    67 (   46) HAS LZ(WEIGHT)= 0.00(100.0%) 
 MO    68 (   46) HAS LZ(WEIGHT)= 0.00(100.0%) 
 MO    69 (   47) HAS LZ(WEIGHT)= 0.00(100.0%) 
 MO    70 (   47) HAS LZ(WEIGHT)= 0.00(100.0%) 
 MO    71 (   48) HAS LZ(WEIGHT)= 0.00(100.0%) 
 MO    72 (   49) HAS LZ(WEIGHT)=-0.00( 50.0%)  0.00( 50.0%) 
 MO    73 (   49) HAS LZ(WEIGHT)=-0.00( 50.0%)  0.00( 50.0%) 
 MO    74 (   50) HAS LZ(WEIGHT)= 0.00(100.0%) 
 MO    75 (   50) HAS LZ(WEIGHT)= 0.00(100.0%) 
 MO    76 (   51) HAS LZ(WEIGHT)= 0.00(100.0%) 
 MO    77 (   52) HAS LZ(WEIGHT)= 0.00(100.0%) 
 MO    78 (   52) HAS LZ(WEIGHT)= 0.00(100.0%) 
 MO    79 (   53) HAS LZ(WEIGHT)= 0.00(100.0%) 
 MO    80 (   54) HAS LZ(WEIGHT)=-0.00( 50.0%)  0.00( 50.0%) 
 MO    81 (   54) HAS LZ(WEIGHT)=-0.00( 50.0%)  0.00( 50.0%) 
 MO    82 (   55) HAS LZ(WEIGHT)= 0.00(100.0%) 
 MO    83 (   56) HAS LZ(WEIGHT)=-0.00( 50.0%)  0.00( 50.0%) 
 MO    84 (   56) HAS LZ(WEIGHT)=-0.00( 50.0%)  0.00( 50.0%) 
 MO    85 (   57) HAS LZ(WEIGHT)= 0.00(100.0%) 
 MO    86 (   58) HAS LZ(WEIGHT)= 0.00(100.0%) 
 MO    87 (   58) HAS LZ(WEIGHT)= 0.00(100.0%) 
 MO    88 (   59) HAS LZ(WEIGHT)= 0.00(100.0%) 
 MO    89 (   60) HAS LZ(WEIGHT)= 0.00(100.0%) 
 MO    90 (   60) HAS LZ(WEIGHT)= 0.00(100.0%) 
 MO    91 (   61) HAS LZ(WEIGHT)= 0.00(100.0%) 
 MO    92 (   61) HAS LZ(WEIGHT)= 0.00(100.0%) 
 MO    93 (   62) HAS LZ(WEIGHT)= 0.00(100.0%) 
 MO    94 (   62) HAS LZ(WEIGHT)= 0.00(100.0%) 
 MO    95 (   63) HAS LZ(WEIGHT)= 0.00(100.0%) 
 MO    96 (   63) HAS LZ(WEIGHT)= 0.00(100.0%) 
 MO    97 (   64) HAS LZ(WEIGHT)= 0.00(100.0%) 
 MO    98 (   65) HAS LZ(WEIGHT)= 0.00(100.0%) 
 MO    99 (   65) HAS LZ(WEIGHT)= 0.00(100.0%) 
 MO   100 (   66) HAS LZ(WEIGHT)= 0.00(100.0%) 
 MO   101 (   66) HAS LZ(WEIGHT)= 0.00(100.0%) 
 MO   102 (   67) HAS LZ(WEIGHT)=-0.00( 50.0%)  0.00( 50.0%) 
 MO   103 (   67) HAS LZ(WEIGHT)=-0.00( 50.0%)  0.00( 50.0%) 
 MO   104 (   68) HAS LZ(WEIGHT)= 0.00(100.0%) 
 MO   105 (   68) HAS LZ(WEIGHT)= 0.00(100.0%) 
 MO   106 (   69) HAS LZ(WEIGHT)= 0.00(100.0%) 
 MO   107 (   70) HAS LZ(WEIGHT)= 0.00(100.0%) 
 MO   108 (   71) HAS LZ(WEIGHT)= 0.00(100.0%) 
 MO   109 (   71) HAS LZ(WEIGHT)= 0.00(100.0%) 
 MO   110 (   72) HAS LZ(WEIGHT)= 0.00(100.0%) 
 MO   111 (   73) HAS LZ(WEIGHT)=-0.00( 50.0%)  0.00( 50.0%) 
 MO   112 (   73) HAS LZ(WEIGHT)=-0.00( 50.0%)  0.00( 50.0%) 
 MO   113 (   74) HAS LZ(WEIGHT)= 0.00(100.0%) 
 MO   114 (   75) HAS LZ(WEIGHT)= 0.00(100.0%) 
 MO   115 (   76) HAS LZ(WEIGHT)= 0.00(100.0%) 

  ----- ALPHA SET ----- 

          ------------
          EIGENVECTORS
          ------------

                      1          2          3          4          5
                  -25.8557   -25.8556    -1.7131    -1.0948    -0.6213
                     A          A          A          A          A   
    1  F  1  S    0.689741   0.689543  -0.015429   0.002951  -0.007338
    2  F  1  S    0.000148  -0.000227   0.308267  -0.421131  -0.200198
    3  F  1  S    0.031685   0.032471   0.085120  -0.118863  -0.057588
    4  F  1  S    0.009722   0.017148   0.112018  -0.379031  -0.385957
    5  F  1  X    0.000434   0.000511   0.100036   0.007579   0.225823
    6  F  1  Y   -0.000000  -0.000000  -0.000000   0.000000  -0.000000
    7  F  1  Z   -0.000000  -0.000000  -0.000000   0.000000  -0.000000
    8  F  1  X    0.004100   0.001300   0.085987   0.019383   0.240682
    9  F  1  Y   -0.000000  -0.000000  -0.000000   0.000000  -0.000000
   10  F  1  Z   -0.000000  -0.000000  -0.000000   0.000000  -0.000000
   11  F  1  X    0.006512   0.007715  -0.039886  -0.016229   0.061963
   12  F  1  Y   -0.000000  -0.000000   0.000000   0.000000  -0.000000
   13  F  1  Z   -0.000000   0.000000   0.000000   0.000000  -0.000000
   14  F  1 XX    0.000552   0.000381   0.010349   0.000239   0.008352
   15  F  1 YY   -0.000276  -0.000191  -0.005174  -0.000120  -0.004176
   16  F  1 ZZ   -0.000276  -0.000191  -0.005174  -0.000120  -0.004176
   17  F  1 XY   -0.000000  -0.000000  -0.000000   0.000000  -0.000000
   18  F  1 XZ   -0.000000  -0.000000  -0.000000   0.000000  -0.000000
   19  F  1 YZ   -0.000000  -0.000000  -0.000000   0.000000  -0.000000
   20  F  1 XX    0.002471  -0.000218  -0.000437   0.015025   0.006102
   21  F  1 YY   -0.001236   0.000109   0.000219  -0.007513  -0.003051
   22  F  1 ZZ   -0.001236   0.000109   0.000219  -0.007513  -0.003051
   23  F  1 XY   -0.000000  -0.000000  -0.000000   0.000000  -0.000000
   24  F  1 XZ   -0.000000  -0.000000  -0.000000   0.000000  -0.000000
   25  F  1 YZ   -0.000000  -0.000000  -0.000000   0.000000  -0.000000
   26  F  1 XXX   0.000347   0.000168   0.004667  -0.001031   0.003731
   27  F  1 YYY  -0.000000  -0.000000  -0.000000   0.000000  -0.000000
   28  F  1 ZZZ  -0.000000  -0.000000  -0.000000   0.000000  -0.000000
   29  F  1 XXY  -0.000000  -0.000000  -0.000000   0.000000  -0.000000
   30  F  1 XXZ  -0.000000  -0.000000  -0.000000   0.000000  -0.000000
   31  F  1 YYX  -0.000233  -0.000112  -0.003131   0.000692  -0.002503
   32  F  1 YYZ  -0.000000  -0.000000  -0.000000   0.000000  -0.000000
   33  F  1 ZZX  -0.000233  -0.000112  -0.003131   0.000692  -0.002503
   34  F  1 ZZY  -0.000000  -0.000000  -0.000000   0.000000  -0.000000
   35  F  1 XYZ  -0.000000  -0.000000  -0.000000   0.000000  -0.000000
   36  F  1  S   -0.000096   0.002739   0.099702  -0.285903  -0.048704
   37  F  1  X    0.000301   0.000128   0.019006  -0.029746   0.024596
   38  F  1  Y   -0.000000  -0.000000  -0.000000   0.000000  -0.000000
   39  F  1  Z   -0.000000  -0.000000  -0.000000   0.000000  -0.000000
   40  F  1 XX    0.002236   0.001439  -0.022252   0.003495  -0.016219
   41  F  1 YY   -0.001118  -0.000720   0.011126  -0.001747   0.008110
   42  F  1 ZZ   -0.001118  -0.000720   0.011126  -0.001747   0.008110
   43  F  1 XY   -0.000000  -0.000000   0.000000   0.000000  -0.000000
   44  F  1 XZ   -0.000000   0.000000   0.000000   0.000000  -0.000000
   45  F  1 YZ   -0.000000  -0.000000  -0.000000   0.000000  -0.000000
   46  F  1 XXX   0.000815  -0.000277  -0.009805   0.007436  -0.004562
   47  F  1 YYY  -0.000000  -0.000000  -0.000000   0.000000  -0.000000
   48  F  1 ZZZ  -0.000000  -0.000000  -0.000000   0.000000  -0.000000
   49  F  1 XXY  -0.000000  -0.000000  -0.000000   0.000000  -0.000000
   50  F  1 XXZ  -0.000000  -0.000000  -0.000000   0.000000  -0.000000
   51  F  1 YYX  -0.000546   0.000186   0.006577  -0.004988   0.003060
   52  F  1 YYZ  -0.000000  -0.000000  -0.000000   0.000000  -0.000000
   53  F  1 ZZX  -0.000546   0.000186   0.006577  -0.004988   0.003060
   54  F  1 ZZY  -0.000000  -0.000000  -0.000000   0.000000  -0.000000
   55  F  1 XYZ  -0.000000  -0.000000  -0.000000   0.000000  -0.000000
   56  H  2  S   -0.000000   0.000549   0.253382   0.000000   0.181833
   57  H  2  S   -0.000000  -0.035257   0.180024  -0.000000   0.411842
   58  H  2  S   -0.000000  -0.004674  -0.265536   0.000000  -0.029178
   59  H  2  X    0.005299  -0.000000  -0.000000   0.048594  -0.000000
   60  H  2  Y   -0.000000  -0.000000  -0.000000   0.000000  -0.000000
   61  H  2  Z   -0.000000  -0.000000  -0.000000   0.000000  -0.000000
   62  H  2  X   -0.003730   0.000000  -0.000000  -0.067326   0.000000
   63  H  2  Y   -0.000000  -0.000000  -0.000000   0.000000  -0.000000
   64  H  2  Z   -0.000000  -0.000000  -0.000000   0.000000  -0.000000
   65  H  2 XX   -0.000000  -0.001928   0.014783   0.000000   0.016513
   66  H  2 YY   -0.000000   0.000964  -0.007391   0.000000  -0.008256
   67  H  2 ZZ   -0.000000   0.000964  -0.007391   0.000000  -0.008256
   68  H  2 XY   -0.000000  -0.000000  -0.000000   0.000000  -0.000000
   69  H  2 XZ   -0.000000  -0.000000   0.000000   0.000000  -0.000000
   70  H  2 YZ   -0.000000  -0.000000  -0.000000   0.000000  -0.000000
   71  H  2  S   -0.000000  -0.000294   0.000245   0.000000   0.005553
   72  H  2  X   -0.001925  -0.000000   0.000000  -0.139000   0.000000
   73  H  2  Y   -0.000000  -0.000000  -0.000000   0.000000  -0.000000
   74  H  2  Z   -0.000000  -0.000000  -0.000000   0.000000  -0.000000
   75  H  2 XX   -0.000000   0.001212  -0.035884   0.000000   0.002945
   76  H  2 YY   -0.000000  -0.000606   0.017942   0.000000  -0.001472
   77  H  2 ZZ   -0.000000  -0.000606   0.017942   0.000000  -0.001472
   78  H  2 XY   -0.000000  -0.000000   0.000000   0.000000  -0.000000
   79  H  2 XZ   -0.000000   0.000000   0.000000   0.000000  -0.000000
   80  H  2 YZ   -0.000000  -0.000000  -0.000000   0.000000  -0.000000
   81  F  3  S   -0.689741   0.689543  -0.015429  -0.002951  -0.007338
   82  F  3  S   -0.000148  -0.000227   0.308267   0.421131  -0.200198
   83  F  3  S   -0.031685   0.032471   0.085120   0.118863  -0.057588
   84  F  3  S   -0.009722   0.017148   0.112018   0.379031  -0.385957
   85  F  3  X    0.000434  -0.000511  -0.100036   0.007579  -0.225823
   86  F  3  Y   -0.000000  -0.000000  -0.000000   0.000000  -0.000000
   87  F  3  Z   -0.000000  -0.000000  -0.000000   0.000000  -0.000000
   88  F  3  X    0.004100  -0.001300  -0.085987   0.019383  -0.240682
   89  F  3  Y   -0.000000  -0.000000  -0.000000   0.000000  -0.000000
   90  F  3  Z   -0.000000  -0.000000  -0.000000   0.000000  -0.000000
   91  F  3  X    0.006512  -0.007715   0.039886  -0.016229  -0.061963
   92  F  3  Y    0.000000   0.000000  -0.000000  -0.000000   0.000000
   93  F  3  Z    0.000000  -0.000000  -0.000000  -0.000000   0.000000
   94  F  3 XX   -0.000552   0.000381   0.010349  -0.000239   0.008352
   95  F  3 YY    0.000276  -0.000191  -0.005174   0.000120  -0.004176
   96  F  3 ZZ    0.000276  -0.000191  -0.005174   0.000120  -0.004176
   97  F  3 XY   -0.000000  -0.000000  -0.000000   0.000000  -0.000000
   98  F  3 XZ   -0.000000  -0.000000  -0.000000   0.000000  -0.000000
   99  F  3 YZ   -0.000000  -0.000000  -0.000000   0.000000  -0.000000
  100  F  3 XX   -0.002471  -0.000218  -0.000437  -0.015025   0.006102
  101  F  3 YY    0.001236   0.000109   0.000219   0.007513  -0.003051
  102  F  3 ZZ    0.001236   0.000109   0.000219   0.007513  -0.003051
  103  F  3 XY   -0.000000  -0.000000  -0.000000   0.000000  -0.000000
  104  F  3 XZ   -0.000000  -0.000000  -0.000000   0.000000  -0.000000
  105  F  3 YZ   -0.000000  -0.000000  -0.000000   0.000000  -0.000000
  106  F  3 XXX   0.000347  -0.000168  -0.004667  -0.001031  -0.003731
  107  F  3 YYY  -0.000000  -0.000000  -0.000000   0.000000  -0.000000
  108  F  3 ZZZ  -0.000000  -0.000000  -0.000000   0.000000  -0.000000
  109  F  3 XXY  -0.000000  -0.000000  -0.000000   0.000000  -0.000000
  110  F  3 XXZ  -0.000000  -0.000000  -0.000000   0.000000  -0.000000
  111  F  3 YYX  -0.000233   0.000112   0.003131   0.000692   0.002503
  112  F  3 YYZ  -0.000000  -0.000000  -0.000000   0.000000  -0.000000
  113  F  3 ZZX  -0.000233   0.000112   0.003131   0.000692   0.002503
  114  F  3 ZZY  -0.000000  -0.000000  -0.000000   0.000000  -0.000000
  115  F  3 XYZ  -0.000000  -0.000000  -0.000000   0.000000  -0.000000
  116  F  3  S    0.000096   0.002739   0.099702   0.285903  -0.048704
  117  F  3  X    0.000301  -0.000128  -0.019006  -0.029746  -0.024596
  118  F  3  Y   -0.000000  -0.000000  -0.000000   0.000000  -0.000000
  119  F  3  Z   -0.000000  -0.000000  -0.000000   0.000000  -0.000000
  120  F  3 XX   -0.002236   0.001439  -0.022252  -0.003495  -0.016219
  121  F  3 YY    0.001118  -0.000720   0.011126   0.001747   0.008110
  122  F  3 ZZ    0.001118  -0.000720   0.011126   0.001747   0.008110
  123  F  3 XY   -0.000000  -0.000000   0.000000   0.000000  -0.000000
  124  F  3 XZ   -0.000000   0.000000   0.000000   0.000000  -0.000000
  125  F  3 YZ   -0.000000  -0.000000  -0.000000   0.000000  -0.000000
  126  F  3 XXX   0.000815   0.000277   0.009805   0.007436   0.004562
  127  F  3 YYY  -0.000000  -0.000000  -0.000000   0.000000  -0.000000
  128  F  3 ZZZ  -0.000000  -0.000000  -0.000000   0.000000  -0.000000
  129  F  3 XXY   0.000000  -0.000000  -0.000000   0.000000  -0.000000
  130  F  3 XXZ  -0.000000  -0.000000  -0.000000   0.000000  -0.000000
  131  F  3 YYX  -0.000546  -0.000186  -0.006577  -0.004988  -0.003060
  132  F  3 YYZ  -0.000000  -0.000000  -0.000000   0.000000  -0.000000
  133  F  3 ZZX  -0.000546  -0.000186  -0.006577  -0.004988  -0.003060
  134  F  3 ZZY  -0.000000  -0.000000  -0.000000   0.000000  -0.000000
  135  F  3 XYZ  -0.000000  -0.000000  -0.000000   0.000000  -0.000000

                      6          7          8          9         10
                   -0.4389    -0.4389    -0.2134    -0.2134    -0.0534
                     A          A          A          A          A   
    1  F  1  S   -0.000000  -0.000000  -0.000000  -0.000000  -0.000674
    2  F  1  S   -0.000000  -0.000000  -0.000000  -0.000000   0.114431
    3  F  1  S   -0.000000  -0.000000  -0.000000  -0.000000   0.038936
    4  F  1  S   -0.000000  -0.000000   0.000000  -0.000000   0.213431
    5  F  1  X   -0.000000  -0.000000  -0.000000  -0.000000   0.293354
    6  F  1  Y   -0.003698   0.247654   0.000353   0.278733   0.000000
    7  F  1  Z    0.247654   0.003698   0.278733  -0.000353   0.000000
    8  F  1  X   -0.000000  -0.000000  -0.000000  -0.000000   0.307854
    9  F  1  Y   -0.004488   0.300530   0.000430   0.339633   0.000000
   10  F  1  Z    0.300530   0.004488   0.339633  -0.000430   0.000000
   11  F  1  X   -0.000000  -0.000000   0.000000  -0.000000   0.296075
   12  F  1  Y   -0.002672   0.178942   0.000627   0.495088   0.000000
   13  F  1  Z    0.178942   0.002672   0.495088  -0.000627  -0.000000
   14  F  1 XX   -0.000000  -0.000000  -0.000000  -0.000000  -0.002052
   15  F  1 YY   -0.000000  -0.000000  -0.000000  -0.000000   0.001026
   16  F  1 ZZ   -0.000000  -0.000000  -0.000000  -0.000000   0.001026
   17  F  1 XY   -0.000091   0.006078   0.000001   0.001071   0.000000
   18  F  1 XZ    0.006078   0.000091   0.001071  -0.000001   0.000000
   19  F  1 YZ   -0.000000  -0.000000  -0.000000  -0.000000   0.000000
   20  F  1 XX   -0.000000  -0.000000  -0.000000  -0.000000  -0.046623
   21  F  1 YY   -0.000000  -0.000000  -0.000000  -0.000000   0.023311
   22  F  1 ZZ   -0.000000  -0.000000  -0.000000  -0.000000   0.023311
   23  F  1 XY   -0.000136   0.009079  -0.000003  -0.002714   0.000000
   24  F  1 XZ    0.009079   0.000136  -0.002714   0.000003   0.000000
   25  F  1 YZ   -0.000000  -0.000000  -0.000000  -0.000000   0.000000
   26  F  1 XXX  -0.000000  -0.000000  -0.000000  -0.000000   0.001654
   27  F  1 YYY   0.000026  -0.001741  -0.000001  -0.001018   0.000000
   28  F  1 ZZZ  -0.001741  -0.000026  -0.001018   0.000001   0.000000
   29  F  1 XXY  -0.000046   0.003114   0.000002   0.001822   0.000000
   30  F  1 XXZ   0.003114   0.000046   0.001822  -0.000002   0.000000
   31  F  1 YYX  -0.000000  -0.000000  -0.000000  -0.000000  -0.001110
   32  F  1 YYZ  -0.000778  -0.000012  -0.000455   0.000001   0.000000
   33  F  1 ZZX  -0.000000  -0.000000  -0.000000  -0.000000  -0.001110
   34  F  1 ZZY   0.000012  -0.000778  -0.000001  -0.000455   0.000000
   35  F  1 XYZ  -0.000000  -0.000000  -0.000000  -0.000000   0.000000
   36  F  1  S   -0.000000  -0.000000  -0.000000  -0.000000   1.439885
   37  F  1  X   -0.000000  -0.000000  -0.000000  -0.000000   0.381533
   38  F  1  Y   -0.000285   0.019069   0.000126   0.099181   0.000000
   39  F  1  Z    0.019069   0.000285   0.099181  -0.000126   0.000000
   40  F  1 XX   -0.000000  -0.000000  -0.000000  -0.000000  -0.034608
   41  F  1 YY   -0.000000  -0.000000  -0.000000  -0.000000   0.017304
   42  F  1 ZZ   -0.000000  -0.000000  -0.000000  -0.000000   0.017304
   43  F  1 XY    0.000158  -0.010599   0.000061   0.048481   0.000000
   44  F  1 XZ   -0.010599  -0.000158   0.048481  -0.000061  -0.000000
   45  F  1 YZ   -0.000000  -0.000000  -0.000000  -0.000000   0.000000
   46  F  1 XXX  -0.000000  -0.000000  -0.000000  -0.000000  -0.020454
   47  F  1 YYY  -0.000025   0.001678   0.000002   0.001233   0.000000
   48  F  1 ZZZ   0.001678   0.000025   0.001233  -0.000002   0.000000
   49  F  1 XXY   0.000045  -0.003001  -0.000003  -0.002206   0.000000
   50  F  1 XXZ  -0.003001  -0.000045  -0.002206   0.000003   0.000000
   51  F  1 YYX  -0.000000  -0.000000  -0.000000  -0.000000   0.013721
   52  F  1 YYZ   0.000750   0.000011   0.000551  -0.000001   0.000000
   53  F  1 ZZX  -0.000000  -0.000000  -0.000000  -0.000000   0.013721
   54  F  1 ZZY  -0.000011   0.000750   0.000001   0.000551   0.000000
   55  F  1 XYZ  -0.000000  -0.000000  -0.000000  -0.000000   0.000000
   56  H  2  S   -0.000000  -0.000000  -0.000000  -0.000000   0.000000
   57  H  2  S   -0.000000  -0.000000  -0.000000  -0.000000   0.000000
   58  H  2  S   -0.000000  -0.000000  -0.000000   0.000000  -0.000000
   59  H  2  X   -0.000000  -0.000000  -0.000000  -0.000000  -0.126925
   60  H  2  Y   -0.000543   0.036357  -0.000000  -0.000000   0.000000
   61  H  2  Z    0.036357   0.000543  -0.000000  -0.000000   0.000000
   62  H  2  X   -0.000000  -0.000000   0.000000  -0.000000   0.095033
   63  H  2  Y   -0.001192   0.079850  -0.000000  -0.000000   0.000000
   64  H  2  Z    0.079850   0.001192  -0.000000  -0.000000   0.000000
   65  H  2 XX   -0.000000  -0.000000  -0.000000  -0.000000   0.000000
   66  H  2 YY   -0.000000  -0.000000  -0.000000  -0.000000   0.000000
   67  H  2 ZZ   -0.000000  -0.000000  -0.000000  -0.000000   0.000000
   68  H  2 XY   -0.000000  -0.000000  -0.000020  -0.015621   0.000000
   69  H  2 XZ   -0.000000  -0.000000  -0.015621   0.000020   0.000000
   70  H  2 YZ   -0.000000  -0.000000  -0.000000  -0.000000   0.000000
   71  H  2  S   -0.000000  -0.000000  -0.000000  -0.000000   0.000000
   72  H  2  X   -0.000000  -0.000000  -0.000000   0.000000   0.609365
   73  H  2  Y   -0.000341   0.022842  -0.000000  -0.000000   0.000000
   74  H  2  Z    0.022842   0.000341  -0.000000  -0.000000   0.000000
   75  H  2 XX   -0.000000  -0.000000  -0.000000  -0.000000  -0.000000
   76  H  2 YY   -0.000000  -0.000000  -0.000000  -0.000000   0.000000
   77  H  2 ZZ   -0.000000  -0.000000  -0.000000  -0.000000   0.000000
   78  H  2 XY   -0.000000  -0.000000   0.000202   0.159846   0.000000
   79  H  2 XZ   -0.000000  -0.000000   0.159846  -0.000202  -0.000000
   80  H  2 YZ   -0.000000  -0.000000  -0.000000  -0.000000   0.000000
   81  F  3  S   -0.000000  -0.000000  -0.000000  -0.000000   0.000674
   82  F  3  S   -0.000000  -0.000000  -0.000000  -0.000000  -0.114431
   83  F  3  S   -0.000000  -0.000000  -0.000000  -0.000000  -0.038936
   84  F  3  S   -0.000000  -0.000000  -0.000000  -0.000000  -0.213431
   85  F  3  X   -0.000000  -0.000000  -0.000000  -0.000000   0.293354
   86  F  3  Y   -0.003698   0.247654  -0.000353  -0.278733   0.000000
   87  F  3  Z    0.247654   0.003698  -0.278733   0.000353   0.000000
   88  F  3  X   -0.000000  -0.000000  -0.000000  -0.000000   0.307854
   89  F  3  Y   -0.004488   0.300530  -0.000430  -0.339633   0.000000
   90  F  3  Z    0.300530   0.004488  -0.339633   0.000430   0.000000
   91  F  3  X   -0.000000  -0.000000   0.000000  -0.000000   0.296075
   92  F  3  Y   -0.002672   0.178942  -0.000627  -0.495088   0.000000
   93  F  3  Z    0.178942   0.002672  -0.495088   0.000627   0.000000
   94  F  3 XX   -0.000000  -0.000000  -0.000000  -0.000000   0.002052
   95  F  3 YY   -0.000000  -0.000000  -0.000000  -0.000000  -0.001026
   96  F  3 ZZ   -0.000000  -0.000000  -0.000000  -0.000000  -0.001026
   97  F  3 XY    0.000091  -0.006078   0.000001   0.001071   0.000000
   98  F  3 XZ   -0.006078  -0.000091   0.001071  -0.000001   0.000000
   99  F  3 YZ   -0.000000  -0.000000  -0.000000  -0.000000   0.000000
  100  F  3 XX   -0.000000  -0.000000  -0.000000  -0.000000   0.046623
  101  F  3 YY   -0.000000  -0.000000  -0.000000  -0.000000  -0.023311
  102  F  3 ZZ   -0.000000  -0.000000  -0.000000  -0.000000  -0.023311
  103  F  3 XY    0.000136  -0.009079  -0.000003  -0.002714   0.000000
  104  F  3 XZ   -0.009079  -0.000136  -0.002714   0.000003   0.000000
  105  F  3 YZ   -0.000000  -0.000000  -0.000000  -0.000000   0.000000
  106  F  3 XXX  -0.000000  -0.000000  -0.000000  -0.000000   0.001654
  107  F  3 YYY   0.000026  -0.001741   0.000001   0.001018   0.000000
  108  F  3 ZZZ  -0.001741  -0.000026   0.001018  -0.000001   0.000000
  109  F  3 XXY  -0.000046   0.003114  -0.000002  -0.001822   0.000000
  110  F  3 XXZ   0.003114   0.000046  -0.001822   0.000002   0.000000
  111  F  3 YYX  -0.000000  -0.000000  -0.000000  -0.000000  -0.001110
  112  F  3 YYZ  -0.000778  -0.000012   0.000455  -0.000001   0.000000
  113  F  3 ZZX  -0.000000  -0.000000  -0.000000  -0.000000  -0.001110
  114  F  3 ZZY   0.000012  -0.000778   0.000001   0.000455   0.000000
  115  F  3 XYZ  -0.000000  -0.000000  -0.000000  -0.000000   0.000000
  116  F  3  S   -0.000000  -0.000000   0.000000  -0.000000  -1.439885
  117  F  3  X   -0.000000  -0.000000  -0.000000  -0.000000   0.381533
  118  F  3  Y   -0.000285   0.019069  -0.000126  -0.099181   0.000000
  119  F  3  Z    0.019069   0.000285  -0.099181   0.000126   0.000000
  120  F  3 XX   -0.000000  -0.000000  -0.000000  -0.000000   0.034608
  121  F  3 YY   -0.000000  -0.000000  -0.000000  -0.000000  -0.017304
  122  F  3 ZZ   -0.000000  -0.000000  -0.000000  -0.000000  -0.017304
  123  F  3 XY   -0.000158   0.010599   0.000061   0.048481   0.000000
  124  F  3 XZ    0.010599   0.000158   0.048481  -0.000061  -0.000000
  125  F  3 YZ   -0.000000  -0.000000  -0.000000  -0.000000   0.000000
  126  F  3 XXX  -0.000000  -0.000000  -0.000000  -0.000000  -0.020454
  127  F  3 YYY  -0.000025   0.001678  -0.000002  -0.001233   0.000000
  128  F  3 ZZZ   0.001678   0.000025  -0.001233   0.000002   0.000000
  129  F  3 XXY   0.000045  -0.003001   0.000003   0.002206   0.000000
  130  F  3 XXZ  -0.003001  -0.000045   0.002206  -0.000003   0.000000
  131  F  3 YYX  -0.000000  -0.000000  -0.000000  -0.000000   0.013721
  132  F  3 YYZ   0.000750   0.000011  -0.000551   0.000001   0.000000
  133  F  3 ZZX  -0.000000  -0.000000  -0.000000  -0.000000   0.013721
  134  F  3 ZZY  -0.000011   0.000750  -0.000001  -0.000551   0.000000
  135  F  3 XYZ  -0.000000  -0.000000  -0.000000  -0.000000   0.000000

                     11         12         13         14         15
                    0.1914     0.2846     0.3256     0.3256     0.3642
                     A          A          A          A          A   
    1  F  1  S   -0.005966   0.017497   0.000000   0.000000  -0.031018
    2  F  1  S   -0.034771   0.029909   0.000000   0.000000  -0.043111
    3  F  1  S   -0.019673   0.017848   0.000000   0.000000  -0.014647
    4  F  1  S   -1.606067   1.903352   0.000000   0.000000  -2.006247
    5  F  1  X    0.012967  -0.073698   0.000000   0.000000   0.004539
    6  F  1  Y   -0.000000   0.000000   0.041960   0.000192  -0.000000
    7  F  1  Z   -0.000000   0.000000  -0.000192   0.041960  -0.000000
    8  F  1  X   -0.054088  -0.083924   0.000000   0.000000  -0.046268
    9  F  1  Y   -0.000000   0.000000   0.010667   0.000049  -0.000000
   10  F  1  Z   -0.000000   0.000000  -0.000049   0.010667  -0.000000
   11  F  1  X   -0.669199   0.423593   0.000000   0.000000   1.659244
   12  F  1  Y    0.000000   0.000000  -0.615203  -0.002822   0.000000
   13  F  1  Z   -0.000000  -0.000000   0.002822  -0.615203   0.000000
   14  F  1 XX   -0.000790  -0.001949   0.000000   0.000000   0.001567
   15  F  1 YY    0.000395   0.000975   0.000000   0.000000  -0.000784
   16  F  1 ZZ    0.000395   0.000975   0.000000   0.000000  -0.000784
   17  F  1 XY   -0.000000   0.000000   0.003025   0.000014  -0.000000
   18  F  1 XZ   -0.000000   0.000000  -0.000014   0.003025  -0.000000
   19  F  1 YZ   -0.000000   0.000000   0.000000   0.000000  -0.000000
   20  F  1 XX   -0.014328  -0.043774   0.000000   0.000000  -0.004790
   21  F  1 YY    0.007164   0.021887   0.000000   0.000000   0.002395
   22  F  1 ZZ    0.007164   0.021887   0.000000   0.000000   0.002395
   23  F  1 XY   -0.000000   0.000000  -0.026713  -0.000123  -0.000000
   24  F  1 XZ   -0.000000   0.000000   0.000123  -0.026713  -0.000000
   25  F  1 YZ   -0.000000   0.000000   0.000000   0.000000  -0.000000
   26  F  1 XXX  -0.001253  -0.003101   0.000000   0.000000   0.002012
   27  F  1 YYY  -0.000000   0.000000  -0.002725  -0.000012  -0.000000
   28  F  1 ZZZ  -0.000000   0.000000   0.000012  -0.002725  -0.000000
   29  F  1 XXY  -0.000000   0.000000   0.004874   0.000022  -0.000000
   30  F  1 XXZ  -0.000000   0.000000  -0.000022   0.004874  -0.000000
   31  F  1 YYX   0.000841   0.002080   0.000000   0.000000  -0.001350
   32  F  1 YYZ  -0.000000   0.000000   0.000006  -0.001219  -0.000000
   33  F  1 ZZX   0.000841   0.002080   0.000000   0.000000  -0.001350
   34  F  1 ZZY  -0.000000   0.000000  -0.001219  -0.000006  -0.000000
   35  F  1 XYZ  -0.000000   0.000000   0.000000   0.000000  -0.000000
   36  F  1  S   -4.392454  40.119869   0.000000   0.000000 -12.442700
   37  F  1  X   -0.674434   6.614728   0.000000   0.000000  -3.783900
   38  F  1  Y   -0.000000   0.000000  -1.826115  -0.008375   0.000000
   39  F  1  Z   -0.000000   0.000000   0.008375  -1.826115   0.000000
   40  F  1 XX   -0.080930  -0.105749   0.000000   0.000000   0.522706
   41  F  1 YY    0.040465   0.052875   0.000000   0.000000  -0.261353
   42  F  1 ZZ    0.040465   0.052875   0.000000   0.000000  -0.261353
   43  F  1 XY   -0.000000   0.000000  -0.305020  -0.001399   0.000000
   44  F  1 XZ   -0.000000  -0.000000   0.001399  -0.305020   0.000000
   45  F  1 YZ   -0.000000   0.000000   0.000000   0.000000  -0.000000
   46  F  1 XXX   0.007066  -0.041033   0.000000   0.000000   0.002608
   47  F  1 YYY  -0.000000   0.000000   0.023571   0.000108  -0.000000
   48  F  1 ZZZ  -0.000000   0.000000  -0.000108   0.023571  -0.000000
   49  F  1 XXY  -0.000000   0.000000  -0.042165  -0.000193  -0.000000
   50  F  1 XXZ  -0.000000   0.000000   0.000193  -0.042165  -0.000000
   51  F  1 YYX  -0.004740   0.027526   0.000000   0.000000  -0.001749
   52  F  1 YYZ  -0.000000   0.000000  -0.000048   0.010541  -0.000000
   53  F  1 ZZX  -0.004740   0.027526   0.000000   0.000000  -0.001749
   54  F  1 ZZY  -0.000000   0.000000   0.010541   0.000048  -0.000000
   55  F  1 XYZ  -0.000000   0.000000   0.000000   0.000000  -0.000000
   56  H  2  S    0.005818   0.000000   0.000000   0.000000   0.000338
   57  H  2  S    2.781174   0.000000   0.000000   0.000000  -3.184292
   58  H  2  S    8.000523  -0.000000   0.000000   0.000000  29.905635
   59  H  2  X   -0.000000  -0.049069   0.000000   0.000000   0.000000
   60  H  2  Y   -0.000000   0.000000   0.024195   0.000111  -0.000000
   61  H  2  Z   -0.000000   0.000000  -0.000111   0.024195  -0.000000
   62  H  2  X    0.000000   1.305678   0.000000   0.000000  -0.000000
   63  H  2  Y   -0.000000   0.000000   0.911683   0.004181  -0.000000
   64  H  2  Z   -0.000000   0.000000  -0.004181   0.911683  -0.000000
   65  H  2 XX    0.043319   0.000000   0.000000   0.000000   0.036460
   66  H  2 YY   -0.021660  -0.000000   0.000000   0.000000  -0.018230
   67  H  2 ZZ   -0.021660  -0.000000   0.000000   0.000000  -0.018230
   68  H  2 XY   -0.000000   0.000000   0.000000   0.000000  -0.000000
   69  H  2 XZ   -0.000000   0.000000   0.000000   0.000000  -0.000000
   70  H  2 YZ   -0.000000   0.000000   0.000000   0.000000  -0.000000
   71  H  2  S    1.907073   0.000000   0.000000   0.000000   0.181800
   72  H  2  X    0.000000  18.180532   0.000000   0.000000  -0.000000
   73  H  2  Y   -0.000000   0.000000   3.189006   0.014626  -0.000000
   74  H  2  Z   -0.000000   0.000000  -0.014626   3.189006  -0.000000
   75  H  2 XX    0.188090  -0.000000   0.000000   0.000000   2.125326
   76  H  2 YY   -0.094045   0.000000   0.000000   0.000000  -1.062663
   77  H  2 ZZ   -0.094045   0.000000   0.000000   0.000000  -1.062663
   78  H  2 XY    0.000000   0.000000  -0.000000   0.000000   0.000000
   79  H  2 XZ   -0.000000  -0.000000   0.000000   0.000000   0.000000
   80  H  2 YZ   -0.000000   0.000000   0.000000   0.000000  -0.000000
   81  F  3  S   -0.005966  -0.017497   0.000000   0.000000  -0.031018
   82  F  3  S   -0.034771  -0.029909   0.000000   0.000000  -0.043111
   83  F  3  S   -0.019673  -0.017848   0.000000   0.000000  -0.014647
   84  F  3  S   -1.606067  -1.903352   0.000000   0.000000  -2.006247
   85  F  3  X   -0.012967  -0.073698   0.000000   0.000000  -0.004539
   86  F  3  Y   -0.000000   0.000000   0.041960   0.000192  -0.000000
   87  F  3  Z   -0.000000   0.000000  -0.000192   0.041960  -0.000000
   88  F  3  X    0.054088  -0.083924   0.000000   0.000000   0.046268
   89  F  3  Y   -0.000000   0.000000   0.010667   0.000049  -0.000000
   90  F  3  Z   -0.000000   0.000000  -0.000049   0.010667  -0.000000
   91  F  3  X    0.669199   0.423593   0.000000   0.000000  -1.659244
   92  F  3  Y   -0.000000  -0.000000  -0.615203  -0.002822  -0.000000
   93  F  3  Z    0.000000   0.000000   0.002822  -0.615203  -0.000000
   94  F  3 XX   -0.000790   0.001949   0.000000   0.000000   0.001567
   95  F  3 YY    0.000395  -0.000975   0.000000   0.000000  -0.000784
   96  F  3 ZZ    0.000395  -0.000975   0.000000   0.000000  -0.000784
   97  F  3 XY   -0.000000   0.000000  -0.003025  -0.000014  -0.000000
   98  F  3 XZ   -0.000000   0.000000   0.000014  -0.003025  -0.000000
   99  F  3 YZ   -0.000000   0.000000   0.000000   0.000000  -0.000000
  100  F  3 XX   -0.014328   0.043774   0.000000   0.000000  -0.004790
  101  F  3 YY    0.007164  -0.021887   0.000000   0.000000   0.002395
  102  F  3 ZZ    0.007164  -0.021887   0.000000   0.000000   0.002395
  103  F  3 XY   -0.000000   0.000000   0.026713   0.000123  -0.000000
  104  F  3 XZ   -0.000000   0.000000  -0.000123   0.026713  -0.000000
  105  F  3 YZ   -0.000000   0.000000   0.000000   0.000000  -0.000000
  106  F  3 XXX   0.001253  -0.003101   0.000000   0.000000  -0.002012
  107  F  3 YYY  -0.000000   0.000000  -0.002725  -0.000012  -0.000000
  108  F  3 ZZZ  -0.000000   0.000000   0.000012  -0.002725  -0.000000
  109  F  3 XXY  -0.000000   0.000000   0.004874   0.000022  -0.000000
  110  F  3 XXZ  -0.000000   0.000000  -0.000022   0.004874  -0.000000
  111  F  3 YYX  -0.000841   0.002080   0.000000   0.000000   0.001350
  112  F  3 YYZ  -0.000000   0.000000   0.000006  -0.001219  -0.000000
  113  F  3 ZZX  -0.000841   0.002080   0.000000   0.000000   0.001350
  114  F  3 ZZY  -0.000000   0.000000  -0.001219  -0.000006  -0.000000
  115  F  3 XYZ  -0.000000   0.000000   0.000000   0.000000  -0.000000
  116  F  3  S   -4.392454 -40.119869   0.000000   0.000000 -12.442700
  117  F  3  X    0.674434   6.614728   0.000000   0.000000   3.783900
  118  F  3  Y   -0.000000  -0.000000  -1.826115  -0.008375  -0.000000
  119  F  3  Z   -0.000000   0.000000   0.008375  -1.826115  -0.000000
  120  F  3 XX   -0.080930   0.105749   0.000000   0.000000   0.522706
  121  F  3 YY    0.040465  -0.052875   0.000000   0.000000  -0.261353
  122  F  3 ZZ    0.040465  -0.052875   0.000000   0.000000  -0.261353
  123  F  3 XY   -0.000000   0.000000   0.305020   0.001399   0.000000
  124  F  3 XZ   -0.000000  -0.000000  -0.001399   0.305020   0.000000
  125  F  3 YZ   -0.000000   0.000000   0.000000   0.000000  -0.000000
  126  F  3 XXX  -0.007066  -0.041033   0.000000   0.000000  -0.002608
  127  F  3 YYY  -0.000000   0.000000   0.023571   0.000108  -0.000000
  128  F  3 ZZZ  -0.000000   0.000000  -0.000108   0.023571  -0.000000
  129  F  3 XXY  -0.000000   0.000000  -0.042165  -0.000193  -0.000000
  130  F  3 XXZ  -0.000000   0.000000   0.000193  -0.042165  -0.000000
  131  F  3 YYX   0.004740   0.027526   0.000000   0.000000   0.001749
  132  F  3 YYZ  -0.000000   0.000000  -0.000048   0.010541  -0.000000
  133  F  3 ZZX   0.004740   0.027526   0.000000   0.000000   0.001749
  134  F  3 ZZY  -0.000000   0.000000   0.010541   0.000048  -0.000000
  135  F  3 XYZ  -0.000000   0.000000   0.000000   0.000000  -0.000000

                     16         17         18         19         20
                    0.4349     0.4349     0.4566     0.5927     0.6740
                     A          A          A          A          A   
    1  F  1  S   -0.000000   0.000000   0.003551   0.028190  -0.000000
    2  F  1  S   -0.000000   0.000000   0.087406   0.011031  -0.000000
    3  F  1  S   -0.000000   0.000000   0.001791   0.016988  -0.000000
    4  F  1  S   -0.000000  -0.000000  -3.533487   5.647529  -0.000000
    5  F  1  X   -0.000000   0.000000  -0.041773   0.092581  -0.000000
    6  F  1  Y   -0.000200  -0.048962   0.000000   0.000000  -0.079898
    7  F  1  Z   -0.048962   0.000200   0.000000   0.000000   0.000987
    8  F  1  X   -0.000000   0.000000  -0.222686   0.183549  -0.000000
    9  F  1  Y   -0.000600  -0.146858   0.000000   0.000000  -0.168962
   10  F  1  Z   -0.146858   0.000600   0.000000   0.000000   0.002087
   11  F  1  X   -0.000000  -0.000000  -2.840211   3.095994  -0.000000
   12  F  1  Y    0.018959   4.643612   0.000000   0.000000  -1.862593
   13  F  1  Z    4.643612  -0.018959   0.000000  -0.000000   0.023004
   14  F  1 XX   -0.000000   0.000000  -0.002911  -0.002228  -0.000000
   15  F  1 YY   -0.000000   0.000000   0.001456   0.001114  -0.000000
   16  F  1 ZZ   -0.000000   0.000000   0.001456   0.001114  -0.000000
   17  F  1 XY    0.000002   0.000597   0.000000   0.000000   0.007151
   18  F  1 XZ    0.000597  -0.000002   0.000000   0.000000  -0.000088
   19  F  1 YZ   -0.000000   0.000000   0.000000   0.000000  -0.000000
   20  F  1 XX   -0.000000   0.000000  -0.037618  -0.073714  -0.000000
   21  F  1 YY   -0.000000   0.000000   0.018809   0.036857  -0.000000
   22  F  1 ZZ   -0.000000   0.000000   0.018809   0.036857  -0.000000
   23  F  1 XY   -0.000222  -0.054428   0.000000   0.000000  -0.119224
   24  F  1 XZ   -0.054428   0.000222   0.000000   0.000000   0.001472
   25  F  1 YZ   -0.000000   0.000000   0.000000   0.000000  -0.000000
   26  F  1 XXX  -0.000000   0.000000  -0.004751  -0.004968  -0.000000
   27  F  1 YYY   0.000026   0.006325   0.000000   0.000000  -0.001861
   28  F  1 ZZZ   0.006325  -0.000026   0.000000   0.000000   0.000023
   29  F  1 XXY  -0.000046  -0.011315   0.000000   0.000000   0.003329
   30  F  1 XXZ  -0.011315   0.000046   0.000000   0.000000  -0.000041
   31  F  1 YYX  -0.000000   0.000000   0.003187   0.003332  -0.000000
   32  F  1 YYZ   0.002829  -0.000012   0.000000   0.000000   0.000010
   33  F  1 ZZX  -0.000000   0.000000   0.003187   0.003332  -0.000000
   34  F  1 ZZY   0.000012   0.002829   0.000000   0.000000  -0.000832
   35  F  1 XYZ  -0.000000   0.000000   0.000000   0.000000  -0.000000
   36  F  1  S    0.000000   0.000000  -6.096856  52.062229  -0.000000
   37  F  1  X    0.000000   0.000000  -0.085393   7.209185  -0.000000
   38  F  1  Y    0.007965   1.950877  -0.000000   0.000000  -2.010453
   39  F  1  Z    1.950877  -0.007965   0.000000   0.000000   0.024830
   40  F  1 XX   -0.000000  -0.000000  -0.482148   0.344648  -0.000000
   41  F  1 YY   -0.000000   0.000000   0.241074  -0.172324  -0.000000
   42  F  1 ZZ   -0.000000   0.000000   0.241074  -0.172324  -0.000000
   43  F  1 XY    0.004754   1.164364   0.000000   0.000000  -0.602265
   44  F  1 XZ    1.164364  -0.004754   0.000000  -0.000000   0.007438
   45  F  1 YZ   -0.000000   0.000000   0.000000   0.000000  -0.000000
   46  F  1 XXX  -0.000000   0.000000   0.019962  -0.054336  -0.000000
   47  F  1 YYY  -0.000093  -0.022822   0.000000   0.000000   0.054982
   48  F  1 ZZZ  -0.022822   0.000093   0.000000   0.000000  -0.000679
   49  F  1 XXY   0.000167   0.040826   0.000000   0.000000  -0.098354
   50  F  1 XXZ   0.040826  -0.000167   0.000000   0.000000   0.001215
   51  F  1 YYX  -0.000000   0.000000  -0.013391   0.036450  -0.000000
   52  F  1 YYZ  -0.010206   0.000042   0.000000   0.000000  -0.000304
   53  F  1 ZZX  -0.000000   0.000000  -0.013391   0.036450  -0.000000
   54  F  1 ZZY  -0.000042  -0.010206   0.000000   0.000000   0.024589
   55  F  1 XYZ  -0.000000   0.000000   0.000000   0.000000  -0.000000
   56  H  2  S   -0.000000   0.000000  -0.000399   0.000000  -0.000000
   57  H  2  S    0.000000   0.000000   9.624034   0.000000  -0.000000
   58  H  2  S   -0.000000   0.000000   8.999596  -0.000000  -0.000000
   59  H  2  X   -0.000000   0.000000  -0.000000  -0.110455  -0.000000
   60  H  2  Y   -0.000000   0.000000   0.000000   0.000000   0.060809
   61  H  2  Z   -0.000000   0.000000   0.000000   0.000000  -0.000751
   62  H  2  X   -0.000000  -0.000000   0.000000   3.393855  -0.000000
   63  H  2  Y   -0.000000  -0.000000   0.000000   0.000000   2.119401
   64  H  2  Z   -0.000000   0.000000   0.000000   0.000000  -0.026175
   65  H  2 XX   -0.000000   0.000000   0.109267   0.000000  -0.000000
   66  H  2 YY   -0.000000   0.000000  -0.054633  -0.000000  -0.000000
   67  H  2 ZZ   -0.000000   0.000000  -0.054633  -0.000000  -0.000000
   68  H  2 XY   -0.000173  -0.042351   0.000000   0.000000  -0.000000
   69  H  2 XZ   -0.042351   0.000173   0.000000   0.000000  -0.000000
   70  H  2 YZ   -0.000000   0.000000   0.000000   0.000000  -0.000000
   71  H  2  S   -0.000000   0.000000   1.353569  -0.000000  -0.000000
   72  H  2  X    0.000000   0.000000   0.000000  23.542990  -0.000000
   73  H  2  Y   -0.000000  -0.000000   0.000000   0.000000   5.887369
   74  H  2  Z   -0.000000   0.000000   0.000000   0.000000  -0.072711
   75  H  2 XX   -0.000000  -0.000000  -0.425492  -0.000000  -0.000000
   76  H  2 YY   -0.000000   0.000000   0.212746   0.000000  -0.000000
   77  H  2 ZZ   -0.000000   0.000000   0.212746   0.000000  -0.000000
   78  H  2 XY    0.016815   4.118517   0.000000   0.000000  -0.000000
   79  H  2 XZ    4.118517  -0.016815   0.000000  -0.000000   0.000000
   80  H  2 YZ   -0.000000   0.000000   0.000000   0.000000  -0.000000
   81  F  3  S   -0.000000   0.000000   0.003551  -0.028190  -0.000000
   82  F  3  S   -0.000000   0.000000   0.087406  -0.011031  -0.000000
   83  F  3  S   -0.000000   0.000000   0.001791  -0.016988  -0.000000
   84  F  3  S    0.000000  -0.000000  -3.533487  -5.647529  -0.000000
   85  F  3  X   -0.000000   0.000000   0.041773   0.092581  -0.000000
   86  F  3  Y    0.000200   0.048962   0.000000   0.000000  -0.079898
   87  F  3  Z    0.048962  -0.000200   0.000000   0.000000   0.000987
   88  F  3  X   -0.000000   0.000000   0.222686   0.183549  -0.000000
   89  F  3  Y    0.000600   0.146858   0.000000   0.000000  -0.168962
   90  F  3  Z    0.146858  -0.000600   0.000000   0.000000   0.002087
   91  F  3  X   -0.000000   0.000000   2.840211   3.095994  -0.000000
   92  F  3  Y   -0.018959  -4.643612  -0.000000   0.000000  -1.862593
   93  F  3  Z   -4.643612   0.018959   0.000000   0.000000   0.023004
   94  F  3 XX   -0.000000   0.000000  -0.002911   0.002228  -0.000000
   95  F  3 YY   -0.000000   0.000000   0.001456  -0.001114  -0.000000
   96  F  3 ZZ   -0.000000   0.000000   0.001456  -0.001114  -0.000000
   97  F  3 XY    0.000002   0.000597   0.000000   0.000000  -0.007151
   98  F  3 XZ    0.000597  -0.000002   0.000000   0.000000   0.000088
   99  F  3 YZ   -0.000000   0.000000   0.000000   0.000000  -0.000000
  100  F  3 XX   -0.000000   0.000000  -0.037618   0.073714  -0.000000
  101  F  3 YY   -0.000000   0.000000   0.018809  -0.036857  -0.000000
  102  F  3 ZZ   -0.000000   0.000000   0.018809  -0.036857  -0.000000
  103  F  3 XY   -0.000222  -0.054428   0.000000   0.000000   0.119224
  104  F  3 XZ   -0.054428   0.000222   0.000000   0.000000  -0.001472
  105  F  3 YZ   -0.000000   0.000000   0.000000   0.000000  -0.000000
  106  F  3 XXX  -0.000000   0.000000   0.004751  -0.004968  -0.000000
  107  F  3 YYY  -0.000026  -0.006325   0.000000   0.000000  -0.001861
  108  F  3 ZZZ  -0.006325   0.000026   0.000000   0.000000   0.000023
  109  F  3 XXY   0.000046   0.011315   0.000000   0.000000   0.003329
  110  F  3 XXZ   0.011315  -0.000046   0.000000   0.000000  -0.000041
  111  F  3 YYX  -0.000000   0.000000  -0.003187   0.003332  -0.000000
  112  F  3 YYZ  -0.002829   0.000012   0.000000   0.000000   0.000010
  113  F  3 ZZX  -0.000000   0.000000  -0.003187   0.003332  -0.000000
  114  F  3 ZZY  -0.000012  -0.002829   0.000000   0.000000  -0.000832
  115  F  3 XYZ  -0.000000   0.000000   0.000000   0.000000  -0.000000
  116  F  3  S   -0.000000  -0.000000  -6.096856 -52.062229  -0.000000
  117  F  3  X   -0.000000   0.000000   0.085393   7.209185  -0.000000
  118  F  3  Y   -0.007965  -1.950877   0.000000   0.000000  -2.010453
  119  F  3  Z   -1.950877   0.007965   0.000000   0.000000   0.024830
  120  F  3 XX   -0.000000   0.000000  -0.482148  -0.344648  -0.000000
  121  F  3 YY   -0.000000   0.000000   0.241074   0.172324  -0.000000
  122  F  3 ZZ   -0.000000   0.000000   0.241074   0.172324  -0.000000
  123  F  3 XY    0.004754   1.164364   0.000000   0.000000   0.602265
  124  F  3 XZ    1.164364  -0.004754   0.000000  -0.000000  -0.007438
  125  F  3 YZ   -0.000000   0.000000   0.000000   0.000000  -0.000000
  126  F  3 XXX  -0.000000   0.000000  -0.019962  -0.054336  -0.000000
  127  F  3 YYY   0.000093   0.022822   0.000000   0.000000   0.054982
  128  F  3 ZZZ   0.022822  -0.000093   0.000000   0.000000  -0.000679
  129  F  3 XXY  -0.000167  -0.040826   0.000000   0.000000  -0.098354
  130  F  3 XXZ  -0.040826   0.000167   0.000000   0.000000   0.001215
  131  F  3 YYX  -0.000000   0.000000   0.013391   0.036450  -0.000000
  132  F  3 YYZ   0.010206  -0.000042   0.000000   0.000000  -0.000304
  133  F  3 ZZX  -0.000000   0.000000   0.013391   0.036450  -0.000000
  134  F  3 ZZY   0.000042   0.010206   0.000000   0.000000   0.024589
  135  F  3 XYZ  -0.000000   0.000000   0.000000   0.000000  -0.000000

                     21         22         23         24         25
                    0.6740     0.7215     0.8263     0.9992     0.9992
                     A          A          A          A          A   
    1  F  1  S    0.000000  -0.055600  -0.016386  -0.000000  -0.000000
    2  F  1  S    0.000000  -0.166153  -0.080999  -0.000000  -0.000000
    3  F  1  S    0.000000  -0.056052  -0.052296  -0.000000  -0.000000
    4  F  1  S    0.000000  -4.203011   4.264821  -0.000000  -0.000000
    5  F  1  X    0.000000  -0.015529  -0.027606  -0.000000  -0.000000
    6  F  1  Y   -0.000987   0.000000   0.000000  -0.000000  -0.000000
    7  F  1  Z   -0.079898   0.000000   0.000000  -0.000000  -0.000000
    8  F  1  X    0.000000  -0.126334   0.225547  -0.000000  -0.000000
    9  F  1  Y   -0.002087   0.000000   0.000000  -0.000000  -0.000000
   10  F  1  Z   -0.168962   0.000000   0.000000  -0.000000  -0.000000
   11  F  1  X    0.000000   2.986738   6.106799  -0.000000  -0.000000
   12  F  1  Y   -0.023004  -0.000000  -0.000000  -0.000000  -0.000000
   13  F  1  Z   -1.862593  -0.000000  -0.000000  -0.000000  -0.000000
   14  F  1 XX    0.000000  -0.006484   0.006851  -0.000000  -0.000000
   15  F  1 YY    0.000000   0.003242  -0.003425  -0.016122  -0.003322
   16  F  1 ZZ    0.000000   0.003242  -0.003425   0.016122   0.003322
   17  F  1 XY    0.000088   0.000000   0.000000  -0.000000  -0.000000
   18  F  1 XZ    0.007151   0.000000   0.000000  -0.000000  -0.000000
   19  F  1 YZ    0.000000   0.000000   0.000000  -0.003836   0.018616
   20  F  1 XX    0.000000  -0.048405   0.149406  -0.000000  -0.000000
   21  F  1 YY    0.000000   0.024202  -0.074703   0.035874   0.007393
   22  F  1 ZZ    0.000000   0.024202  -0.074703  -0.035874  -0.007393
   23  F  1 XY   -0.001472   0.000000   0.000000  -0.000000  -0.000000
   24  F  1 XZ   -0.119224   0.000000   0.000000  -0.000000  -0.000000
   25  F  1 YZ    0.000000   0.000000   0.000000   0.008536  -0.041424
   26  F  1 XXX   0.000000  -0.001287  -0.000167  -0.000000  -0.000000
   27  F  1 YYY  -0.000023   0.000000   0.000000  -0.000000  -0.000000
   28  F  1 ZZZ  -0.001861   0.000000   0.000000  -0.000000  -0.000000
   29  F  1 XXY   0.000041   0.000000   0.000000  -0.000000  -0.000000
   30  F  1 XXZ   0.003329   0.000000   0.000000  -0.000000  -0.000000
   31  F  1 YYX   0.000000   0.000864   0.000112  -0.014824  -0.003055
   32  F  1 YYZ  -0.000832   0.000000   0.000000  -0.000000  -0.000000
   33  F  1 ZZX   0.000000   0.000864   0.000112   0.014824   0.003055
   34  F  1 ZZY  -0.000010   0.000000   0.000000  -0.000000  -0.000000
   35  F  1 XYZ   0.000000   0.000000   0.000000  -0.003527   0.017117
   36  F  1  S    0.000000 -19.469824 -68.721712   0.000000   0.000000
   37  F  1  X    0.000000  -3.676000  -6.760959   0.000000   0.000000
   38  F  1  Y   -0.024830   0.000000   0.000000  -0.000000  -0.000000
   39  F  1  Z   -2.010453   0.000000   0.000000  -0.000000  -0.000000
   40  F  1 XX    0.000000   0.994783   2.013184  -0.000000  -0.000000
   41  F  1 YY    0.000000  -0.497392  -1.006592   0.166129   0.034234
   42  F  1 ZZ    0.000000  -0.497392  -1.006592  -0.166129  -0.034234
   43  F  1 XY   -0.007438  -0.000000  -0.000000  -0.000000  -0.000000
   44  F  1 XZ   -0.602265  -0.000000  -0.000000  -0.000000  -0.000000
   45  F  1 YZ    0.000000   0.000000   0.000000   0.039530  -0.191829
   46  F  1 XXX   0.000000   0.012995   0.157137  -0.000000  -0.000000
   47  F  1 YYY   0.000679   0.000000   0.000000  -0.000000  -0.000000
   48  F  1 ZZZ   0.054982   0.000000   0.000000  -0.000000  -0.000000
   49  F  1 XXY  -0.001215   0.000000   0.000000  -0.000000  -0.000000
   50  F  1 XXZ  -0.098354   0.000000   0.000000  -0.000000  -0.000000
   51  F  1 YYX   0.000000  -0.008717  -0.105411   0.088795   0.018298
   52  F  1 YYZ   0.024589   0.000000   0.000000  -0.000000  -0.000000
   53  F  1 ZZX   0.000000  -0.008717  -0.105411  -0.088795  -0.018298
   54  F  1 ZZY   0.000304   0.000000   0.000000  -0.000000  -0.000000
   55  F  1 XYZ   0.000000   0.000000   0.000000   0.021129  -0.102532
   56  H  2  S    0.000000  -0.090670   0.000000  -0.000000  -0.000000
   57  H  2  S    0.000000  -5.601534  -0.000000  -0.000000  -0.000000
   58  H  2  S    0.000000  47.709787  -0.000000  -0.000000  -0.000000
   59  H  2  X    0.000000   0.000000   0.255559  -0.000000  -0.000000
   60  H  2  Y    0.000751   0.000000   0.000000  -0.000000  -0.000000
   61  H  2  Z    0.060809   0.000000   0.000000  -0.000000  -0.000000
   62  H  2  X    0.000000   0.000000   1.395833  -0.000000  -0.000000
   63  H  2  Y    0.026175   0.000000   0.000000  -0.000000  -0.000000
   64  H  2  Z    2.119401   0.000000   0.000000  -0.000000  -0.000000
   65  H  2 XX    0.000000   0.061657  -0.000000  -0.000000  -0.000000
   66  H  2 YY    0.000000  -0.030829   0.000000  -0.059812  -0.012326
   67  H  2 ZZ    0.000000  -0.030829   0.000000   0.059812   0.012326
   68  H  2 XY    0.000000   0.000000   0.000000  -0.000000  -0.000000
   69  H  2 XZ    0.000000   0.000000   0.000000  -0.000000  -0.000000
   70  H  2 YZ    0.000000   0.000000   0.000000  -0.014232   0.069065
   71  H  2  S    0.000000   0.467697  -0.000000  -0.000000  -0.000000
   72  H  2  X    0.000000  -0.000000 -41.867709   0.000000   0.000000
   73  H  2  Y    0.072711   0.000000   0.000000  -0.000000  -0.000000
   74  H  2  Z    5.887369   0.000000   0.000000  -0.000000  -0.000000
   75  H  2 XX    0.000000   3.941162  -0.000000  -0.000000  -0.000000
   76  H  2 YY    0.000000  -1.970581   0.000000  -1.153418  -0.237686
   77  H  2 ZZ    0.000000  -1.970581   0.000000   1.153418   0.237686
   78  H  2 XY    0.000000  -0.000000  -0.000000  -0.000000  -0.000000
   79  H  2 XZ    0.000000  -0.000000  -0.000000  -0.000000  -0.000000
   80  H  2 YZ    0.000000   0.000000   0.000000  -0.274457   1.331852
   81  F  3  S    0.000000  -0.055600   0.016386  -0.000000  -0.000000
   82  F  3  S    0.000000  -0.166153   0.080999  -0.000000  -0.000000
   83  F  3  S    0.000000  -0.056052   0.052296  -0.000000  -0.000000
   84  F  3  S    0.000000  -4.203011  -4.264821   0.000000   0.000000
   85  F  3  X    0.000000   0.015529  -0.027606  -0.000000  -0.000000
   86  F  3  Y   -0.000987   0.000000   0.000000  -0.000000  -0.000000
   87  F  3  Z   -0.079898   0.000000   0.000000  -0.000000  -0.000000
   88  F  3  X    0.000000   0.126334   0.225547  -0.000000  -0.000000
   89  F  3  Y   -0.002087   0.000000   0.000000  -0.000000  -0.000000
   90  F  3  Z   -0.168962   0.000000   0.000000  -0.000000  -0.000000
   91  F  3  X    0.000000  -2.986738   6.106799  -0.000000  -0.000000
   92  F  3  Y   -0.023004   0.000000   0.000000  -0.000000  -0.000000
   93  F  3  Z   -1.862593   0.000000   0.000000  -0.000000  -0.000000
   94  F  3 XX    0.000000  -0.006484  -0.006851  -0.000000  -0.000000
   95  F  3 YY    0.000000   0.003242   0.003425  -0.016122  -0.003322
   96  F  3 ZZ    0.000000   0.003242   0.003425   0.016122   0.003322
   97  F  3 XY   -0.000088   0.000000   0.000000  -0.000000  -0.000000
   98  F  3 XZ   -0.007151   0.000000   0.000000  -0.000000  -0.000000
   99  F  3 YZ    0.000000   0.000000   0.000000  -0.003836   0.018616
  100  F  3 XX    0.000000  -0.048405  -0.149406  -0.000000  -0.000000
  101  F  3 YY    0.000000   0.024202   0.074703   0.035874   0.007393
  102  F  3 ZZ    0.000000   0.024202   0.074703  -0.035874  -0.007393
  103  F  3 XY    0.001472   0.000000   0.000000  -0.000000  -0.000000
  104  F  3 XZ    0.119224   0.000000   0.000000  -0.000000  -0.000000
  105  F  3 YZ    0.000000   0.000000   0.000000   0.008536  -0.041424
  106  F  3 XXX   0.000000   0.001287  -0.000167  -0.000000  -0.000000
  107  F  3 YYY  -0.000023   0.000000   0.000000  -0.000000  -0.000000
  108  F  3 ZZZ  -0.001861   0.000000   0.000000  -0.000000  -0.000000
  109  F  3 XXY   0.000041   0.000000   0.000000  -0.000000  -0.000000
  110  F  3 XXZ   0.003329   0.000000   0.000000  -0.000000  -0.000000
  111  F  3 YYX   0.000000  -0.000864   0.000112   0.014824   0.003055
  112  F  3 YYZ  -0.000832   0.000000   0.000000  -0.000000  -0.000000
  113  F  3 ZZX   0.000000  -0.000864   0.000112  -0.014824  -0.003055
  114  F  3 ZZY  -0.000010   0.000000   0.000000  -0.000000  -0.000000
  115  F  3 XYZ   0.000000   0.000000   0.000000   0.003527  -0.017117
  116  F  3  S    0.000000 -19.469824  68.721712  -0.000000  -0.000000
  117  F  3  X    0.000000   3.676000  -6.760959   0.000000   0.000000
  118  F  3  Y   -0.024830   0.000000   0.000000  -0.000000  -0.000000
  119  F  3  Z   -2.010453   0.000000   0.000000  -0.000000  -0.000000
  120  F  3 XX    0.000000   0.994783  -2.013184   0.000000  -0.000000
  121  F  3 YY    0.000000  -0.497392   1.006592   0.166129   0.034234
  122  F  3 ZZ    0.000000  -0.497392   1.006592  -0.166129  -0.034234
  123  F  3 XY    0.007438  -0.000000  -0.000000  -0.000000  -0.000000
  124  F  3 XZ    0.602265  -0.000000  -0.000000  -0.000000  -0.000000
  125  F  3 YZ    0.000000   0.000000   0.000000   0.039530  -0.191829
  126  F  3 XXX   0.000000  -0.012995   0.157137  -0.000000  -0.000000
  127  F  3 YYY   0.000679   0.000000   0.000000  -0.000000  -0.000000
  128  F  3 ZZZ   0.054982   0.000000   0.000000  -0.000000  -0.000000
  129  F  3 XXY  -0.001215   0.000000   0.000000  -0.000000  -0.000000
  130  F  3 XXZ  -0.098354   0.000000   0.000000  -0.000000  -0.000000
  131  F  3 YYX   0.000000   0.008717  -0.105411  -0.088795  -0.018298
  132  F  3 YYZ   0.024589   0.000000   0.000000  -0.000000  -0.000000
  133  F  3 ZZX   0.000000   0.008717  -0.105411   0.088795   0.018298
  134  F  3 ZZY   0.000304   0.000000   0.000000  -0.000000  -0.000000
  135  F  3 XYZ   0.000000   0.000000   0.000000  -0.021129   0.102532

                     26         27         28         29         30
                    1.1762     1.1859     1.1859     1.2349     1.2349
                     A          A          A          A          A   
    1  F  1  S    0.007326   0.000000  -0.000000   0.000000   0.000000
    2  F  1  S   -0.155529  -0.000000  -0.000000   0.000000   0.000000
    3  F  1  S   -0.116516  -0.000000  -0.000000   0.000000   0.000000
    4  F  1  S  -10.745639  -0.000000  -0.000000   0.000000   0.000000
    5  F  1  X    0.084706   0.000000   0.000000   0.000000   0.000000
    6  F  1  Y   -0.000000   0.007559   0.157648   0.000669   0.028279
    7  F  1  Z   -0.000000   0.157648  -0.007559   0.028279  -0.000669
    8  F  1  X   -0.372330  -0.000000  -0.000000   0.000000   0.000000
    9  F  1  Y    0.000000  -0.004211  -0.087815  -0.002661  -0.112490
   10  F  1  Z    0.000000  -0.087815   0.004211  -0.112490   0.002661
   11  F  1  X   -9.362153  -0.000000  -0.000000   0.000000   0.000000
   12  F  1  Y   -0.000000   1.077275  22.467949  -0.021546  -0.911010
   13  F  1  Z   -0.000000  22.467949  -1.077275  -0.911010   0.021546
   14  F  1 XX   -0.004166   0.000000  -0.000000   0.000000   0.000000
   15  F  1 YY    0.002083   0.000000  -0.000000   0.000000   0.000000
   16  F  1 ZZ    0.002083   0.000000  -0.000000   0.000000   0.000000
   17  F  1 XY   -0.000000   0.000480   0.010013  -0.000497  -0.021005
   18  F  1 XZ   -0.000000   0.010013  -0.000480  -0.021005   0.000497
   19  F  1 YZ   -0.000000   0.000000  -0.000000   0.000000   0.000000
   20  F  1 XX   -0.091127  -0.000000  -0.000000   0.000000   0.000000
   21  F  1 YY    0.045564   0.000000   0.000000   0.000000   0.000000
   22  F  1 ZZ    0.045564   0.000000   0.000000   0.000000   0.000000
   23  F  1 XY    0.000000  -0.005324  -0.111037  -0.000288  -0.012173
   24  F  1 XZ    0.000000  -0.111037   0.005324  -0.012173   0.000288
   25  F  1 YZ   -0.000000   0.000000  -0.000000   0.000000   0.000000
   26  F  1 XXX  -0.012408   0.000000  -0.000000   0.000000   0.000000
   27  F  1 YYY  -0.000000   0.000697   0.014545  -0.000260  -0.010991
   28  F  1 ZZZ  -0.000000   0.014545  -0.000697  -0.010991   0.000260
   29  F  1 XXY  -0.000000  -0.001248  -0.026019   0.000465   0.019662
   30  F  1 XXZ  -0.000000  -0.026019   0.001248   0.019662  -0.000465
   31  F  1 YYX   0.008324   0.000000  -0.000000   0.000000   0.000000
   32  F  1 YYZ  -0.000000   0.006505  -0.000312  -0.004915   0.000116
   33  F  1 ZZX   0.008324   0.000000  -0.000000   0.000000   0.000000
   34  F  1 ZZY  -0.000000   0.000312   0.006505  -0.000116  -0.004915
[...]
 COORD 1= 0.850 COORD 2= 0.200
 HAS ENERGY VALUE    -199.530828
 ---- SURFACE MAPPING GEOMETRY ----
 COORD 1= 0.850 COORD 2= 0.250
 HAS ENERGY VALUE    -199.520055
 ---- SURFACE MAPPING GEOMETRY ----
 COORD 1= 0.850 COORD 2= 0.300
 HAS ENERGY VALUE    -199.509007
 ---- SURFACE MAPPING GEOMETRY ----
 COORD 1= 0.850 COORD 2= 0.350
 HAS ENERGY VALUE    -199.497950
 ---- SURFACE MAPPING GEOMETRY ----
 COORD 1= 0.850 COORD 2= 0.400
 HAS ENERGY VALUE    -199.487066
 ---- SURFACE MAPPING GEOMETRY ----
 COORD 1= 0.850 COORD 2= 0.450
 HAS ENERGY VALUE    -199.476481
 ---- SURFACE MAPPING GEOMETRY ----
 COORD 1= 0.850 COORD 2= 0.500
 HAS ENERGY VALUE    -199.466280
 ---- SURFACE MAPPING GEOMETRY ----
 COORD 1= 0.850 COORD 2= 0.550
 HAS ENERGY VALUE    -199.456517
 ---- SURFACE MAPPING GEOMETRY ----
 COORD 1= 0.850 COORD 2= 0.600
 HAS ENERGY VALUE    -199.447225
 ---- SURFACE MAPPING GEOMETRY ----
 COORD 1= 0.850 COORD 2= 0.650
 HAS ENERGY VALUE    -199.438421
 ---- SURFACE MAPPING GEOMETRY ----
 COORD 1= 0.850 COORD 2= 0.700
 HAS ENERGY VALUE    -199.430108
 ---- SURFACE MAPPING GEOMETRY ----
 COORD 1= 0.850 COORD 2= 0.750
 HAS ENERGY VALUE    -199.422282
 ---- SURFACE MAPPING GEOMETRY ----
 COORD 1= 0.850 COORD 2= 0.800
 HAS ENERGY VALUE    -199.414932
 ---- SURFACE MAPPING GEOMETRY ----
 COORD 1= 0.850 COORD 2= 0.850
 HAS ENERGY VALUE    -199.408041
 ---- SURFACE MAPPING GEOMETRY ----
 COORD 1= 0.850 COORD 2= 0.900
 HAS ENERGY VALUE    -199.401589
 ---- SURFACE MAPPING GEOMETRY ----
 COORD 1= 0.850 COORD 2= 0.950
 HAS ENERGY VALUE    -199.395554
 ---- SURFACE MAPPING GEOMETRY ----
 COORD 1= 0.850 COORD 2= 1.000
 HAS ENERGY VALUE    -199.389911
 ---- SURFACE MAPPING GEOMETRY ----
 COORD 1= 0.850 COORD 2= 1.050
 HAS ENERGY VALUE    -199.384639
 ---- SURFACE MAPPING GEOMETRY ----
 COORD 1= 0.850 COORD 2= 1.100
 HAS ENERGY VALUE    -199.379714
 ---- SURFACE MAPPING GEOMETRY ----
 COORD 1= 0.850 COORD 2= 1.150
 HAS ENERGY VALUE    -199.375114
 ---- SURFACE MAPPING GEOMETRY ----
 COORD 1= 0.900 COORD 2=-0.300
 HAS ENERGY VALUE    -199.395885
 ---- SURFACE MAPPING GEOMETRY ----
 COORD 1= 0.900 COORD 2=-0.250
 HAS ENERGY VALUE    -199.466608
 ---- SURFACE MAPPING GEOMETRY ----
 COORD 1= 0.900 COORD 2=-0.200
 HAS ENERGY VALUE    -199.511765
 ---- SURFACE MAPPING GEOMETRY ----
 COORD 1= 0.900 COORD 2=-0.150
 HAS ENERGY VALUE    -199.539021
 ---- SURFACE MAPPING GEOMETRY ----
 COORD 1= 0.900 COORD 2=-0.100
 HAS ENERGY VALUE    -199.553713
 ---- SURFACE MAPPING GEOMETRY ----
 COORD 1= 0.900 COORD 2=-0.050
 HAS ENERGY VALUE    -199.559595
 ---- SURFACE MAPPING GEOMETRY ----
 COORD 1= 0.900 COORD 2= 0.000
 HAS ENERGY VALUE    -199.559333
 ---- SURFACE MAPPING GEOMETRY ----
 COORD 1= 0.900 COORD 2= 0.050
 HAS ENERGY VALUE    -199.554832
 ---- SURFACE MAPPING GEOMETRY ----
 COORD 1= 0.900 COORD 2= 0.100
 HAS ENERGY VALUE    -199.547460
 ---- SURFACE MAPPING GEOMETRY ----
 COORD 1= 0.900 COORD 2= 0.150
 HAS ENERGY VALUE    -199.538208
 ---- SURFACE MAPPING GEOMETRY ----
 COORD 1= 0.900 COORD 2= 0.200
 HAS ENERGY VALUE    -199.527791
 ---- SURFACE MAPPING GEOMETRY ----
 COORD 1= 0.900 COORD 2= 0.250
 HAS ENERGY VALUE    -199.516729
 ---- SURFACE MAPPING GEOMETRY ----
 COORD 1= 0.900 COORD 2= 0.300
 HAS ENERGY VALUE    -199.505394
 ---- SURFACE MAPPING GEOMETRY ----
 COORD 1= 0.900 COORD 2= 0.350
 HAS ENERGY VALUE    -199.494050
 ---- SURFACE MAPPING GEOMETRY ----
 COORD 1= 0.900 COORD 2= 0.400
 HAS ENERGY VALUE    -199.482883
 ---- SURFACE MAPPING GEOMETRY ----
 COORD 1= 0.900 COORD 2= 0.450
 HAS ENERGY VALUE    -199.472019
 ---- SURFACE MAPPING GEOMETRY ----
 COORD 1= 0.900 COORD 2= 0.500
 HAS ENERGY VALUE    -199.461544
 ---- SURFACE MAPPING GEOMETRY ----
 COORD 1= 0.900 COORD 2= 0.550
 HAS ENERGY VALUE    -199.451513
 ---- SURFACE MAPPING GEOMETRY ----
 COORD 1= 0.900 COORD 2= 0.600
 HAS ENERGY VALUE    -199.441959
 ---- SURFACE MAPPING GEOMETRY ----
 COORD 1= 0.900 COORD 2= 0.650
 HAS ENERGY VALUE    -199.432900
 ---- SURFACE MAPPING GEOMETRY ----
 COORD 1= 0.900 COORD 2= 0.700
 HAS ENERGY VALUE    -199.424341
 ---- SURFACE MAPPING GEOMETRY ----
 COORD 1= 0.900 COORD 2= 0.750
 HAS ENERGY VALUE    -199.416278
 ---- SURFACE MAPPING GEOMETRY ----
 COORD 1= 0.900 COORD 2= 0.800
 HAS ENERGY VALUE    -199.408700
 ---- SURFACE MAPPING GEOMETRY ----
 COORD 1= 0.900 COORD 2= 0.850
 HAS ENERGY VALUE    -199.401589
 ---- SURFACE MAPPING GEOMETRY ----
 COORD 1= 0.900 COORD 2= 0.900
 HAS ENERGY VALUE    -199.394927
 ---- SURFACE MAPPING GEOMETRY ----
 COORD 1= 0.900 COORD 2= 0.950
 HAS ENERGY VALUE    -199.388691
 ---- SURFACE MAPPING GEOMETRY ----
 COORD 1= 0.900 COORD 2= 1.000
 HAS ENERGY VALUE    -199.382858
 ---- SURFACE MAPPING GEOMETRY ----
 COORD 1= 0.900 COORD 2= 1.050
 HAS ENERGY VALUE    -199.377405
 ---- SURFACE MAPPING GEOMETRY ----
 COORD 1= 0.900 COORD 2= 1.100
 HAS ENERGY VALUE    -199.372309
 ---- SURFACE MAPPING GEOMETRY ----
 COORD 1= 0.900 COORD 2= 1.150
 HAS ENERGY VALUE    -199.367546
 ---- SURFACE MAPPING GEOMETRY ----
 COORD 1= 0.950 COORD 2=-0.300
 HAS ENERGY VALUE    -199.395389
 ---- SURFACE MAPPING GEOMETRY ----
 COORD 1= 0.950 COORD 2=-0.250
 HAS ENERGY VALUE    -199.465905
 ---- SURFACE MAPPING GEOMETRY ----
 COORD 1= 0.950 COORD 2=-0.200
 HAS ENERGY VALUE    -199.510846
 ---- SURFACE MAPPING GEOMETRY ----
 COORD 1= 0.950 COORD 2=-0.150
 HAS ENERGY VALUE    -199.537878
 ---- SURFACE MAPPING GEOMETRY ----
 COORD 1= 0.950 COORD 2=-0.100
 HAS ENERGY VALUE    -199.552338
 ---- SURFACE MAPPING GEOMETRY ----
 COORD 1= 0.950 COORD 2=-0.050
 HAS ENERGY VALUE    -199.557981
 ---- SURFACE MAPPING GEOMETRY ----
 COORD 1= 0.950 COORD 2= 0.000
 HAS ENERGY VALUE    -199.557475
 ---- SURFACE MAPPING GEOMETRY ----
 COORD 1= 0.950 COORD 2= 0.050
 HAS ENERGY VALUE    -199.552724
 ---- SURFACE MAPPING GEOMETRY ----
 COORD 1= 0.950 COORD 2= 0.100
 HAS ENERGY VALUE    -199.545099
 ---- SURFACE MAPPING GEOMETRY ----
 COORD 1= 0.950 COORD 2= 0.150
 HAS ENERGY VALUE    -199.535590
 ---- SURFACE MAPPING GEOMETRY ----
 COORD 1= 0.950 COORD 2= 0.200
 HAS ENERGY VALUE    -199.524914
 ---- SURFACE MAPPING GEOMETRY ----
 COORD 1= 0.950 COORD 2= 0.250
 HAS ENERGY VALUE    -199.513592
 ---- SURFACE MAPPING GEOMETRY ----
 COORD 1= 0.950 COORD 2= 0.300
 HAS ENERGY VALUE    -199.501996
 ---- SURFACE MAPPING GEOMETRY ----
 COORD 1= 0.950 COORD 2= 0.350
 HAS ENERGY VALUE    -199.490392
 ---- SURFACE MAPPING GEOMETRY ----
 COORD 1= 0.950 COORD 2= 0.400
 HAS ENERGY VALUE    -199.478966
 ---- SURFACE MAPPING GEOMETRY ----
 COORD 1= 0.950 COORD 2= 0.450
 HAS ENERGY VALUE    -199.467846
 ---- SURFACE MAPPING GEOMETRY ----
 COORD 1= 0.950 COORD 2= 0.500
 HAS ENERGY VALUE    -199.457118
 ---- SURFACE MAPPING GEOMETRY ----
 COORD 1= 0.950 COORD 2= 0.550
 HAS ENERGY VALUE    -199.446838
 ---- SURFACE MAPPING GEOMETRY ----
 COORD 1= 0.950 COORD 2= 0.600
 HAS ENERGY VALUE    -199.437041
 ---- SURFACE MAPPING GEOMETRY ----
 COORD 1= 0.950 COORD 2= 0.650
 HAS ENERGY VALUE    -199.427745
 ---- SURFACE MAPPING GEOMETRY ----
 COORD 1= 0.950 COORD 2= 0.700
 HAS ENERGY VALUE    -199.418955
 ---- SURFACE MAPPING GEOMETRY ----
 COORD 1= 0.950 COORD 2= 0.750
 HAS ENERGY VALUE    -199.410668
 ---- SURFACE MAPPING GEOMETRY ----
 COORD 1= 0.950 COORD 2= 0.800
 HAS ENERGY VALUE    -199.402873
 ---- SURFACE MAPPING GEOMETRY ----
 COORD 1= 0.950 COORD 2= 0.850
 HAS ENERGY VALUE    -199.395554
 ---- SURFACE MAPPING GEOMETRY ----
 COORD 1= 0.950 COORD 2= 0.900
 HAS ENERGY VALUE    -199.388691
 ---- SURFACE MAPPING GEOMETRY ----
 COORD 1= 0.950 COORD 2= 0.950
 HAS ENERGY VALUE    -199.382263
 ---- SURFACE MAPPING GEOMETRY ----
 COORD 1= 0.950 COORD 2= 1.000
 HAS ENERGY VALUE    -199.376247
 ---- SURFACE MAPPING GEOMETRY ----
 COORD 1= 0.950 COORD 2= 1.050
 HAS ENERGY VALUE    -199.370620
 ---- SURFACE MAPPING GEOMETRY ----
 COORD 1= 0.950 COORD 2= 1.100
 HAS ENERGY VALUE    -199.365357
 ---- SURFACE MAPPING GEOMETRY ----
 COORD 1= 0.950 COORD 2= 1.150
 HAS ENERGY VALUE    -199.360436
 ---- SURFACE MAPPING GEOMETRY ----
 COORD 1= 1.000 COORD 2=-0.300
 HAS ENERGY VALUE    -199.394771
 ---- SURFACE MAPPING GEOMETRY ----
 COORD 1= 1.000 COORD 2=-0.250
 HAS ENERGY VALUE    -199.465108
 ---- SURFACE MAPPING GEOMETRY ----
 COORD 1= 1.000 COORD 2=-0.200
 HAS ENERGY VALUE    -199.509861
 ---- SURFACE MAPPING GEOMETRY ----
 COORD 1= 1.000 COORD 2=-0.150
 HAS ENERGY VALUE    -199.536697
 ---- SURFACE MAPPING GEOMETRY ----
 COORD 1= 1.000 COORD 2=-0.100
 HAS ENERGY VALUE    -199.550953
 ---- SURFACE MAPPING GEOMETRY ----
 COORD 1= 1.000 COORD 2=-0.050
 HAS ENERGY VALUE    -199.556386
 ---- SURFACE MAPPING GEOMETRY ----
 COORD 1= 1.000 COORD 2= 0.000
 HAS ENERGY VALUE    -199.555663
 ---- SURFACE MAPPING GEOMETRY ----
 COORD 1= 1.000 COORD 2= 0.050
 HAS ENERGY VALUE    -199.550691
 ---- SURFACE MAPPING GEOMETRY ----
 COORD 1= 1.000 COORD 2= 0.100
 HAS ENERGY VALUE    -199.542839
 ---- SURFACE MAPPING GEOMETRY ----
 COORD 1= 1.000 COORD 2= 0.150
 HAS ENERGY VALUE    -199.533100
 ---- SURFACE MAPPING GEOMETRY ----
 COORD 1= 1.000 COORD 2= 0.200
 HAS ENERGY VALUE    -199.522191
 ---- SURFACE MAPPING GEOMETRY ----
 COORD 1= 1.000 COORD 2= 0.250
 HAS ENERGY VALUE    -199.510634
 ---- SURFACE MAPPING GEOMETRY ----
 COORD 1= 1.000 COORD 2= 0.300
 HAS ENERGY VALUE    -199.498802
 ---- SURFACE MAPPING GEOMETRY ----
 COORD 1= 1.000 COORD 2= 0.350
 HAS ENERGY VALUE    -199.486961
 ---- SURFACE MAPPING GEOMETRY ----
 COORD 1= 1.000 COORD 2= 0.400
 HAS ENERGY VALUE    -199.475299
 ---- SURFACE MAPPING GEOMETRY ----
 COORD 1= 1.000 COORD 2= 0.450
 HAS ENERGY VALUE    -199.463944
 ---- SURFACE MAPPING GEOMETRY ----
 COORD 1= 1.000 COORD 2= 0.500
 HAS ENERGY VALUE    -199.452983
 ---- SURFACE MAPPING GEOMETRY ----
 COORD 1= 1.000 COORD 2= 0.550
 HAS ENERGY VALUE    -199.442473
 ---- SURFACE MAPPING GEOMETRY ----
 COORD 1= 1.000 COORD 2= 0.600
 HAS ENERGY VALUE    -199.432450
 ---- SURFACE MAPPING GEOMETRY ----
 COORD 1= 1.000 COORD 2= 0.650
 HAS ENERGY VALUE    -199.422932
 ---- SURFACE MAPPING GEOMETRY ----
 COORD 1= 1.000 COORD 2= 0.700
 HAS ENERGY VALUE    -199.413926
 ---- SURFACE MAPPING GEOMETRY ----
 COORD 1= 1.000 COORD 2= 0.750
 HAS ENERGY VALUE    -199.405428
 ---- SURFACE MAPPING GEOMETRY ----
 COORD 1= 1.000 COORD 2= 0.800
 HAS ENERGY VALUE    -199.397428
 ---- SURFACE MAPPING GEOMETRY ----
 COORD 1= 1.000 COORD 2= 0.850
 HAS ENERGY VALUE    -199.389911
 ---- SURFACE MAPPING GEOMETRY ----
 COORD 1= 1.000 COORD 2= 0.900
 HAS ENERGY VALUE    -199.382858
 ---- SURFACE MAPPING GEOMETRY ----
 COORD 1= 1.000 COORD 2= 0.950
 HAS ENERGY VALUE    -199.376247
 ---- SURFACE MAPPING GEOMETRY ----
 COORD 1= 1.000 COORD 2= 1.000
 HAS ENERGY VALUE    -199.370056
 ---- SURFACE MAPPING GEOMETRY ----
 COORD 1= 1.000 COORD 2= 1.050
 HAS ENERGY VALUE    -199.364260
 ---- SURFACE MAPPING GEOMETRY ----
 COORD 1= 1.000 COORD 2= 1.100
 HAS ENERGY VALUE    -199.358837
 ---- SURFACE MAPPING GEOMETRY ----
 COORD 1= 1.000 COORD 2= 1.150
 HAS ENERGY VALUE    -199.353763
 ---- SURFACE MAPPING GEOMETRY ----
 COORD 1= 1.050 COORD 2=-0.300
 HAS ENERGY VALUE    -199.394065
 ---- SURFACE MAPPING GEOMETRY ----
 COORD 1= 1.050 COORD 2=-0.250
 HAS ENERGY VALUE    -199.464246
 ---- SURFACE MAPPING GEOMETRY ----
 COORD 1= 1.050 COORD 2=-0.200
 HAS ENERGY VALUE    -199.508834
 ---- SURFACE MAPPING GEOMETRY ----
 COORD 1= 1.050 COORD 2=-0.150
 HAS ENERGY VALUE    -199.535497
 ---- SURFACE MAPPING GEOMETRY ----
 COORD 1= 1.050 COORD 2=-0.100
 HAS ENERGY VALUE    -199.549573
 ---- SURFACE MAPPING GEOMETRY ----
 COORD 1= 1.050 COORD 2=-0.050
 HAS ENERGY VALUE    -199.554819
 ---- SURFACE MAPPING GEOMETRY ----
 COORD 1= 1.050 COORD 2= 0.000
 HAS ENERGY VALUE    -199.553904
 ---- SURFACE MAPPING GEOMETRY ----
 COORD 1= 1.050 COORD 2= 0.050
 HAS ENERGY VALUE    -199.548734
 ---- SURFACE MAPPING GEOMETRY ----
 COORD 1= 1.050 COORD 2= 0.100
 HAS ENERGY VALUE    -199.540680
 ---- SURFACE MAPPING GEOMETRY ----
 COORD 1= 1.050 COORD 2= 0.150
 HAS ENERGY VALUE    -199.530735
 ---- SURFACE MAPPING GEOMETRY ----
 COORD 1= 1.050 COORD 2= 0.200
 HAS ENERGY VALUE    -199.519617
 ---- SURFACE MAPPING GEOMETRY ----
 COORD 1= 1.050 COORD 2= 0.250
 HAS ENERGY VALUE    -199.507847
 ---- SURFACE MAPPING GEOMETRY ----
 COORD 1= 1.050 COORD 2= 0.300
 HAS ENERGY VALUE    -199.495801
 ---- SURFACE MAPPING GEOMETRY ----
 COORD 1= 1.050 COORD 2= 0.350
 HAS ENERGY VALUE    -199.483745
 ---- SURFACE MAPPING GEOMETRY ----
 COORD 1= 1.050 COORD 2= 0.400
 HAS ENERGY VALUE    -199.471866
 ---- SURFACE MAPPING GEOMETRY ----
 COORD 1= 1.050 COORD 2= 0.450
 HAS ENERGY VALUE    -199.460296
 ---- SURFACE MAPPING GEOMETRY ----
 COORD 1= 1.050 COORD 2= 0.500
 HAS ENERGY VALUE    -199.449120
 ---- SURFACE MAPPING GEOMETRY ----
 COORD 1= 1.050 COORD 2= 0.550
 HAS ENERGY VALUE    -199.438398
 ---- SURFACE MAPPING GEOMETRY ----
 COORD 1= 1.050 COORD 2= 0.600
 HAS ENERGY VALUE    -199.428165
 ---- SURFACE MAPPING GEOMETRY ----
 COORD 1= 1.050 COORD 2= 0.650
 HAS ENERGY VALUE    -199.418441
 ---- SURFACE MAPPING GEOMETRY ----
 COORD 1= 1.050 COORD 2= 0.700
 HAS ENERGY VALUE    -199.409232
 ---- SURFACE MAPPING GEOMETRY ----
 COORD 1= 1.050 COORD 2= 0.750
 HAS ENERGY VALUE    -199.400536
 ---- SURFACE MAPPING GEOMETRY ----
 COORD 1= 1.050 COORD 2= 0.800
 HAS ENERGY VALUE    -199.392343
 ---- SURFACE MAPPING GEOMETRY ----
 COORD 1= 1.050 COORD 2= 0.850
 HAS ENERGY VALUE    -199.384639
 ---- SURFACE MAPPING GEOMETRY ----
 COORD 1= 1.050 COORD 2= 0.900
 HAS ENERGY VALUE    -199.377405
 ---- SURFACE MAPPING GEOMETRY ----
 COORD 1= 1.050 COORD 2= 0.950
 HAS ENERGY VALUE    -199.370620
 ---- SURFACE MAPPING GEOMETRY ----
 COORD 1= 1.050 COORD 2= 1.000
 HAS ENERGY VALUE    -199.364260
 ---- SURFACE MAPPING GEOMETRY ----
 COORD 1= 1.050 COORD 2= 1.050
 HAS ENERGY VALUE    -199.358303
 ---- SURFACE MAPPING GEOMETRY ----
 COORD 1= 1.050 COORD 2= 1.100
 HAS ENERGY VALUE    -199.352725
 ---- SURFACE MAPPING GEOMETRY ----
 COORD 1= 1.050 COORD 2= 1.150
 HAS ENERGY VALUE    -199.347505
 ---- SURFACE MAPPING GEOMETRY ----
 COORD 1= 1.100 COORD 2=-0.300
 HAS ENERGY VALUE    -199.393296
 ---- SURFACE MAPPING GEOMETRY ----
 COORD 1= 1.100 COORD 2=-0.250
 HAS ENERGY VALUE    -199.463339
 ---- SURFACE MAPPING GEOMETRY ----
 COORD 1= 1.100 COORD 2=-0.200
 HAS ENERGY VALUE    -199.507782
 ---- SURFACE MAPPING GEOMETRY ----
 COORD 1= 1.100 COORD 2=-0.150
 HAS ENERGY VALUE    -199.534293
 ---- SURFACE MAPPING GEOMETRY ----
 COORD 1= 1.100 COORD 2=-0.100
 HAS ENERGY VALUE    -199.548209
 ---- SURFACE MAPPING GEOMETRY ----
 COORD 1= 1.100 COORD 2=-0.050
 HAS ENERGY VALUE    -199.553289
 ---- SURFACE MAPPING GEOMETRY ----
 COORD 1= 1.100 COORD 2= 0.000
 HAS ENERGY VALUE    -199.552203
 ---- SURFACE MAPPING GEOMETRY ----
 COORD 1= 1.100 COORD 2= 0.050
 HAS ENERGY VALUE    -199.546856
 ---- SURFACE MAPPING GEOMETRY ----
 COORD 1= 1.100 COORD 2= 0.100
 HAS ENERGY VALUE    -199.538621
 ---- SURFACE MAPPING GEOMETRY ----
 COORD 1= 1.100 COORD 2= 0.150
 HAS ENERGY VALUE    -199.528490
 ---- SURFACE MAPPING GEOMETRY ----
 COORD 1= 1.100 COORD 2= 0.200
 HAS ENERGY VALUE    -199.517183
 ---- SURFACE MAPPING GEOMETRY ----
 COORD 1= 1.100 COORD 2= 0.250
 HAS ENERGY VALUE    -199.505221
 ---- SURFACE MAPPING GEOMETRY ----
 COORD 1= 1.100 COORD 2= 0.300
 HAS ENERGY VALUE    -199.492980
 ---- SURFACE MAPPING GEOMETRY ----
 COORD 1= 1.100 COORD 2= 0.350
 HAS ENERGY VALUE    -199.480728
 ---- SURFACE MAPPING GEOMETRY ----
 COORD 1= 1.100 COORD 2= 0.400
 HAS ENERGY VALUE    -199.468652
 ---- SURFACE MAPPING GEOMETRY ----
 COORD 1= 1.100 COORD 2= 0.450
 HAS ENERGY VALUE    -199.456884
 ---- SURFACE MAPPING GEOMETRY ----
 COORD 1= 1.100 COORD 2= 0.500
 HAS ENERGY VALUE    -199.445511
 ---- SURFACE MAPPING GEOMETRY ----
 COORD 1= 1.100 COORD 2= 0.550
 HAS ENERGY VALUE    -199.434593
 ---- SURFACE MAPPING GEOMETRY ----
 COORD 1= 1.100 COORD 2= 0.600
 HAS ENERGY VALUE    -199.424165
 ---- SURFACE MAPPING GEOMETRY ----
 COORD 1= 1.100 COORD 2= 0.650
 HAS ENERGY VALUE    -199.414248
 ---- SURFACE MAPPING GEOMETRY ----
 COORD 1= 1.100 COORD 2= 0.700
 HAS ENERGY VALUE    -199.404850
 ---- SURFACE MAPPING GEOMETRY ----
 COORD 1= 1.100 COORD 2= 0.750
 HAS ENERGY VALUE    -199.395969
 ---- SURFACE MAPPING GEOMETRY ----
 COORD 1= 1.100 COORD 2= 0.800
 HAS ENERGY VALUE    -199.387595
 ---- SURFACE MAPPING GEOMETRY ----
 COORD 1= 1.100 COORD 2= 0.850
 HAS ENERGY VALUE    -199.379714
 ---- SURFACE MAPPING GEOMETRY ----
 COORD 1= 1.100 COORD 2= 0.900
 HAS ENERGY VALUE    -199.372309
 ---- SURFACE MAPPING GEOMETRY ----
 COORD 1= 1.100 COORD 2= 0.950
 HAS ENERGY VALUE    -199.365357
 ---- SURFACE MAPPING GEOMETRY ----
 COORD 1= 1.100 COORD 2= 1.000
 HAS ENERGY VALUE    -199.358837
 ---- SURFACE MAPPING GEOMETRY ----
 COORD 1= 1.100 COORD 2= 1.050
 HAS ENERGY VALUE    -199.352725
 ---- SURFACE MAPPING GEOMETRY ----
 COORD 1= 1.100 COORD 2= 1.100
 HAS ENERGY VALUE    -199.346999
 ---- SURFACE MAPPING GEOMETRY ----
 COORD 1= 1.100 COORD 2= 1.150
 HAS ENERGY VALUE    -199.341637
 ---- SURFACE MAPPING GEOMETRY ----
 COORD 1= 1.150 COORD 2=-0.300
 HAS ENERGY VALUE    -199.392485
 ---- SURFACE MAPPING GEOMETRY ----
 COORD 1= 1.150 COORD 2=-0.250
 HAS ENERGY VALUE    -199.462407
 ---- SURFACE MAPPING GEOMETRY ----
 COORD 1= 1.150 COORD 2=-0.200
 HAS ENERGY VALUE    -199.506721
 ---- SURFACE MAPPING GEOMETRY ----
 COORD 1= 1.150 COORD 2=-0.150
 HAS ENERGY VALUE    -199.533095
 ---- SURFACE MAPPING GEOMETRY ----
 COORD 1= 1.150 COORD 2=-0.100
 HAS ENERGY VALUE    -199.546869
 ---- SURFACE MAPPING GEOMETRY ----
 COORD 1= 1.150 COORD 2=-0.050
 HAS ENERGY VALUE    -199.551802
 ---- SURFACE MAPPING GEOMETRY ----
 COORD 1= 1.150 COORD 2= 0.000
 HAS ENERGY VALUE    -199.550562
 ---- SURFACE MAPPING GEOMETRY ----
 COORD 1= 1.150 COORD 2= 0.050
 HAS ENERGY VALUE    -199.545057
 ---- SURFACE MAPPING GEOMETRY ----
 COORD 1= 1.150 COORD 2= 0.100
 HAS ENERGY VALUE    -199.536659
 ---- SURFACE MAPPING GEOMETRY ----
 COORD 1= 1.150 COORD 2= 0.150
 HAS ENERGY VALUE    -199.526361
 ---- SURFACE MAPPING GEOMETRY ----
 COORD 1= 1.150 COORD 2= 0.200
 HAS ENERGY VALUE    -199.514883
 ---- SURFACE MAPPING GEOMETRY ----
 COORD 1= 1.150 COORD 2= 0.250
 HAS ENERGY VALUE    -199.502747
 ---- SURFACE MAPPING GEOMETRY ----
 COORD 1= 1.150 COORD 2= 0.300
 HAS ENERGY VALUE    -199.490329
 ---- SURFACE MAPPING GEOMETRY ----
 COORD 1= 1.150 COORD 2= 0.350
 HAS ENERGY VALUE    -199.477898
 ---- SURFACE MAPPING GEOMETRY ----
 COORD 1= 1.150 COORD 2= 0.400
 HAS ENERGY VALUE    -199.465642
 ---- SURFACE MAPPING GEOMETRY ----
 COORD 1= 1.150 COORD 2= 0.450
 HAS ENERGY VALUE    -199.453692
 ---- SURFACE MAPPING GEOMETRY ----
 COORD 1= 1.150 COORD 2= 0.500
 HAS ENERGY VALUE    -199.442138
 ---- SURFACE MAPPING GEOMETRY ----
 COORD 1= 1.150 COORD 2= 0.550
 HAS ENERGY VALUE    -199.431039
 ---- SURFACE MAPPING GEOMETRY ----
 COORD 1= 1.150 COORD 2= 0.600
 HAS ENERGY VALUE    -199.420431
 ---- SURFACE MAPPING GEOMETRY ----
 COORD 1= 1.150 COORD 2= 0.650
 HAS ENERGY VALUE    -199.410335
 ---- SURFACE MAPPING GEOMETRY ----
 COORD 1= 1.150 COORD 2= 0.700
 HAS ENERGY VALUE    -199.400761
 ---- SURFACE MAPPING GEOMETRY ----
 COORD 1= 1.150 COORD 2= 0.750
 HAS ENERGY VALUE    -199.391706
 ---- SURFACE MAPPING GEOMETRY ----
 COORD 1= 1.150 COORD 2= 0.800
 HAS ENERGY VALUE    -199.383161
 ---- SURFACE MAPPING GEOMETRY ----
 COORD 1= 1.150 COORD 2= 0.850
 HAS ENERGY VALUE    -199.375114
 ---- SURFACE MAPPING GEOMETRY ----
 COORD 1= 1.150 COORD 2= 0.900
 HAS ENERGY VALUE    -199.367546
 ---- SURFACE MAPPING GEOMETRY ----
 COORD 1= 1.150 COORD 2= 0.950
 HAS ENERGY VALUE    -199.360436
 ---- SURFACE MAPPING GEOMETRY ----
 COORD 1= 1.150 COORD 2= 1.000
 HAS ENERGY VALUE    -199.353763
 ---- SURFACE MAPPING GEOMETRY ----
 COORD 1= 1.150 COORD 2= 1.050
 HAS ENERGY VALUE    -199.347505
 ---- SURFACE MAPPING GEOMETRY ----
 COORD 1= 1.150 COORD 2= 1.100
 HAS ENERGY VALUE    -199.341637
 ---- SURFACE MAPPING GEOMETRY ----
 COORD 1= 1.150 COORD 2= 1.150
 HAS ENERGY VALUE    -199.336138
